<LesHouchesEvents version="1.0">
<!--
  File written by Pythia8::LHAup on 20 Sep 2021 at 11:26:05
-->
<init>
  2212  2212  6.500000e+03  6.500000e+03  0  0  0  0  3  1
  4.447008e+02  5.064171e+00  1.000000e+00   9999
</init>
<event>
    12  9999  1.000000e+00  2.000397e+02  7.887750e-03  1.057326e-01
        2    -1     0     0   101     0  0.0000000000e+00  0.0000000000e+00  1.7414005884e+03  1.7414005884e+03  0.0000000000e+00 0. 9.
       -2    -1     0     0     0   102  0.0000000000e+00  0.0000000000e+00 -2.3899550014e+01  2.3899550014e+01  0.0000000000e+00 0. 9.
        6     2     1     2   101     0 -3.1494724998e+01 -9.9400296893e+01  1.0326091264e+03  1.0518365281e+03  1.7089803193e+02  7.633820e-14 9.
       -6     2     1     2     0   102  3.1494724998e+01  9.9400296893e+01  6.8489191200e+02  7.1346361027e+02  1.7053168425e+02  4.157720e-14 9.
       24     2     3     0     0     0  2.9587471919e+01 -1.8770987942e+01  6.5669967438e+02  6.6252550037e+02  8.0360486693e+01  1.026914e-13 9.
        5     1     3     0   101     0 -6.1082196917e+01 -8.0629308951e+01  3.7590945199e+02  3.8931102776e+02  4.8000000000e+00 0. 9.
      -24     2     4     0     0     0  6.7715000757e+01  1.1442477399e+02  4.6726752211e+02  4.9228255691e+02  7.9528789718e+01  4.891653e-14 9.
       -5     1     4     0     0   102 -3.6220275758e+01 -1.5024477098e+01  2.1762438990e+02  2.2118105336e+02  4.8000000000e+00 0. 9.
       -3     1     5     0     0   103  3.5946781786e+01  1.2662233672e+00  1.1678583174e+02  1.2220047029e+02  5.0000000000e-01 0. 9.
        4     1     5     0   103     0 -6.3593098676e+00 -2.0037211309e+01  5.3991384264e+02  5.4032503008e+02  1.5000000000e+00 0. 9.
        1     1     7     0   104     0  3.6577346502e+01  1.1555319635e+02  3.3087502939e+02  3.5237598874e+02  3.3000000000e-01 0. 9.
       -2     1     7     0     0   104  3.1137654254e+01 -1.1284223579e+00  1.3639249272e+02  1.3990656818e+02  3.3000000000e-01 0. 9.
#pdf    2   -2  2.679078e-01  3.676854e-03  1.998834e+02  3.504089e-01  8.908971e-01
</event>
<event>
    12  9999  1.000000e+00  2.086508e+02  7.891554e-03  1.051946e-01
       21    -1     0     0   101   102  0.0000000000e+00  0.0000000000e+00  5.2264844578e+01  5.2264844578e+01  0.0000000000e+00 0. 9.
       21    -1     0     0   102   103  0.0000000000e+00  0.0000000000e+00 -1.9608670173e+03  1.9608670173e+03  0.0000000000e+00 0. 9.
        6     2     1     2   101     0 -9.4173228707e+01 -7.3802294400e+01 -1.9136182409e+02  2.8329062784e+02  1.7122749907e+02  7.983035e-14 9.
       -6     2     1     2     0   103  9.4173228707e+01  7.3802294400e+01 -1.7172403486e+03  1.7298412340e+03  1.7064848187e+02  3.286620e-14 9.
       24     2     3     0     0     0 -9.5029655277e+01 -4.2903059873e+01 -5.4233605222e+01  1.4263969620e+02  8.0830013405e+01  2.473727e-13 9.
        5     1     3     0   101     0  8.5642656987e-01 -3.0899234527e+01 -1.3712821887e+02  1.4065093164e+02  4.8000000000e+00 0. 9.
      -24     2     4     0     0     0  3.0239995369e+01  6.6990572484e+01 -1.4714041478e+03  1.4756910117e+03  8.5038824725e+01  1.405844e-13 9.
       -5     1     4     0     0   103  6.3933233338e+01  6.8117219152e+00 -2.4583620082e+02  2.5415022233e+02  4.8000000000e+00 0. 9.
       -3     1     5     0     0   104 -3.4799523191e+01 -4.9391290517e+01 -5.5480768389e+01  8.2029702269e+01  5.0000000000e-01 0. 9.
        4     1     5     0   104     0 -6.0230132086e+01  6.4882306440e+00  1.2471631664e+00  6.0609993928e+01  1.5000000000e+00 0. 9.
        1     1     7     0   105     0 -1.0068179048e+01  4.3908185922e-01 -7.5615891319e+02  7.5622613808e+02  3.3000000000e-01 0. 9.
       -2     1     7     0     0   105  4.0308174417e+01  6.6551490625e+01 -7.1524523462e+02  7.1946487362e+02  3.3000000000e-01 0. 9.
#pdf   21   21  8.040745e-03  3.016718e-01  2.084137e+02  9.578759e+00  9.873857e-02
</event>
<event>
    12  9999  1.000000e+00  1.832483e+02  7.879849e-03  1.068698e-01
       21    -1     0     0   101   102  0.0000000000e+00  0.0000000000e+00  3.6579737537e+02  3.6579737537e+02  0.0000000000e+00 0. 9.
       21    -1     0     0   103   101  0.0000000000e+00  0.0000000000e+00 -1.0097585906e+02  1.0097585906e+02  0.0000000000e+00 0. 9.
        6     2     1     2   103     0 -1.3921735201e+01 -6.1416195520e+01  6.1805056160e+01  1.9302959535e+02  1.7168225281e+02  7.312121e-14 9.
       -6     2     1     2     0   102  1.3921735201e+01  6.1416195520e+01  2.0301646015e+02  2.7374363908e+02  1.7249386384e+02  1.359083e-13 9.
       24     2     3     0     0     0  1.0282598836e+01 -5.3612857517e+01  1.0435274503e+02  1.4322911645e+02  8.1516955731e+01  6.128850e-14 9.
        5     1     3     0   103     0 -2.4204334037e+01 -7.8033380025e+00 -4.2547688874e+01  4.9800478900e+01  4.8000000000e+00 0. 9.
      -24     2     4     0     0     0  3.2667617303e+01  6.9526882265e+00  3.2308428187e+01  9.3516133136e+01  8.1153678480e+01  5.749617e-14 9.
       -5     1     4     0     0   102 -1.8745882102e+01  5.4463507293e+01  1.7070803196e+02  1.8022750595e+02  4.8000000000e+00 0. 9.
       -1     1     5     0     0   104  3.1650045616e+01  1.2549693278e+00  6.5287217079e+01  7.2566038540e+01  3.3000000000e-01 0. 9.
        2     1     5     0   104     0 -2.1367446780e+01 -5.4867826845e+01  3.9065527955e+01  7.0663077905e+01  3.3000000000e-01 0. 9.
        1     1     7     0   105     0  1.9997701163e+00 -1.9863962584e+01  4.6314789159e+01  5.0435549813e+01  3.3000000000e-01 0. 9.
       -2     1     7     0     0   105  3.0667847187e+01  2.6816650810e+01 -1.4006360972e+01  4.3080583323e+01  3.3000000000e-01 0. 9.
#pdf   21   21  5.627652e-02  1.553475e-02  1.828676e+02  1.678000e+00  5.718653e+00
</event>
<event>
    12  9999  1.000000e+00  2.952033e+02  7.923014e-03  1.009675e-01
       21    -1     0     0   101   102  0.0000000000e+00  0.0000000000e+00  3.1278260123e+02  3.1278260123e+02  0.0000000000e+00 0. 9.
       21    -1     0     0   103   101  0.0000000000e+00  0.0000000000e+00 -9.1633896320e+02  9.1633896320e+02  0.0000000000e+00 0. 9.
        6     2     1     2   103     0 -2.3453833689e+02 -3.9465850742e+01 -8.1505849265e+02  8.6753159245e+02  1.7811494216e+02  5.159540e-15 9.
       -6     2     1     2     0   102  2.3453833689e+02  3.9465850742e+01  2.1150213068e+02  3.6158997197e+02  1.7160527877e+02  1.200505e-13 9.
       24     2     3     0     0     0 -2.4228481452e+02 -3.4435379821e+01 -6.0971373445e+02  6.6192317027e+02  8.0645636152e+01  3.572829e-14 9.
        5     1     3     0   103     0  7.7464776345e+00 -5.0304709212e+00 -2.0534475819e+02  2.0560842218e+02  4.8000000000e+00 0. 9.
      -24     2     4     0     0     0  8.9370080996e+01  3.6850377686e+01  1.6543035942e+02  2.0918816317e+02  8.3949521027e+01  1.673404e-14 9.
       -5     1     4     0     0   102  1.4516825589e+02  2.6154730556e+00  4.6071771259e+01  1.5240180880e+02  4.8000000000e+00 0. 9.
      -11     1     5     0     0     0 -1.3358500634e+02  2.1466662124e+01 -3.3098522067e+02  3.5757095492e+02  5.1100000000e-04 0. 9.
       12     1     5     0     0     0 -1.0869980818e+02 -5.5902041945e+01 -2.7872851379e+02  3.0435221535e+02  0.0000000000e+00 0. 9.
        1     1     7     0   104     0  9.8998859677e+01  4.1549681721e+01  1.1378702836e+02  1.5644406985e+02  3.3000000000e-01 0. 9.
       -2     1     7     0     0   104 -9.6287786806e+00 -4.6993040351e+00  5.1643331062e+01  5.2744093323e+01  3.3000000000e-01 0. 9.
#pdf   21   21  4.812040e-02  1.409752e-01  2.932817e+02  1.934294e+00  4.686907e-01
</event>
<event>
    12  9999  1.000000e+00  1.709922e+02  7.873621e-03  1.077854e-01
       21    -1     0     0   101   102  0.0000000000e+00  0.0000000000e+00  7.3892034824e+02  7.3892034824e+02  0.0000000000e+00 0. 9.
       21    -1     0     0   102   103  0.0000000000e+00  0.0000000000e+00 -4.4054350668e+01  4.4054350668e+01  0.0000000000e+00 0. 9.
        6     2     1     2   101     0  1.0384998946e+01 -1.6868336178e+01  4.7002612040e+02  4.9973654573e+02  1.6858135221e+02  3.295883e-13 9.
       -6     2     1     2     0   103 -1.0384998946e+01  1.6868336178e+01  2.2483987717e+02  2.8323815318e+02  1.7110959084e+02  1.913738e-13 9.
       24     2     3     0     0     0  4.3728725150e+01  4.0577522701e+01  2.3285295355e+02  2.5339129643e+02  8.0174275043e+01  1.239531e-13 9.
        5     1     3     0   101     0 -3.3343726204e+01 -5.7445858879e+01  2.3717316685e+02  2.4634524930e+02  4.8000000000e+00 0. 9.
      -24     2     4     0     0     0  3.4609326817e+01  5.7830584111e+01  1.7658134411e+02  2.0542863500e+02  8.0484601171e+01  3.213333e-14 9.
       -5     1     4     0     0   103 -4.4994325762e+01 -4.0962247933e+01  4.8258533061e+01  7.7809518182e+01  4.8000000000e+00 0. 9.
       -3     1     5     0     0   104  1.4970941187e+00 -7.0251520735e+00 -3.9291050971e+00  8.2025556578e+00  5.0000000000e-01 0. 9.
        4     1     5     0   104     0  4.2231631031e+01  4.7602674775e+01  2.3678205864e+02  2.4518874077e+02  1.5000000000e+00 0. 9.
        3     1     7     0   105     0  1.1182111497e+01 -6.1772412241e+00 -3.1789596272e+00  1.3173978556e+01  5.0000000000e-01 0. 9.
       -4     1     7     0     0   105  2.3427215320e+01  6.4007825335e+01  1.7976030374e+02  1.9225465644e+02  1.5000000000e+00 0. 9.
#pdf   21   21  1.136801e-01  6.777592e-03  1.697412e+02  6.955606e-01  1.079713e+01
</event>
<event>
    12  9999  1.000000e+00  2.798518e+02  7.918156e-03  1.015955e-01
       21    -1     0     0   101   102  0.0000000000e+00  0.0000000000e+00  1.0454291184e+02  1.0454291184e+02  0.0000000000e+00 0. 9.
       21    -1     0     0   102   103  0.0000000000e+00  0.0000000000e+00 -1.0919892900e+03  1.0919892900e+03  0.0000000000e+00 0. 9.
        6     2     1     2   101     0  1.6028213687e+02 -1.5422355794e+02 -1.5675240153e+02  3.1949949994e+02  1.6743161545e+02  3.263290e-14 9.
       -6     2     1     2     0   103 -1.6028213687e+02  1.5422355794e+02 -8.3069397664e+02  8.7703270192e+02  1.7221674770e+02  1.538993e-13 9.
       24     2     3     0     0     0  7.2054160721e+01 -1.0362870657e+01 -6.9060854043e+01  1.2925512914e+02  8.1475736765e+01  2.150231e-13 9.
        5     1     3     0   101     0  8.8227976154e+01 -1.4386068728e+02 -8.7691547487e+01  1.9024437080e+02  4.8000000000e+00 0. 9.
      -24     2     4     0     0     0 -1.4294861598e+02  9.8683423360e+01 -6.6080911597e+02  6.9739678296e+02  1.3971707225e+02  2.653006e-14 9.
       -5     1     4     0     0   103 -1.7333520891e+01  5.5540134577e+01 -1.6988486067e+02  1.7963591896e+02  4.8000000000e+00 0. 9.
       -1     1     5     0     0   104  6.1194904374e+01 -5.2368286598e+00 -2.3426967599e+00  6.1464118182e+01  3.3000000000e-01 0. 9.
        2     1     5     0   104     0  1.0859256346e+01 -5.1260419967e+00 -6.6718157283e+01  6.7791010954e+01  3.3000000000e-01 0. 9.
        1     1     7     0   105     0 -1.5463212552e+00  2.1567783241e+01 -5.1307868916e+00  2.2225981587e+01  3.3000000000e-01 0. 9.
       -2     1     7     0     0   105 -1.4140229473e+02  7.7115640119e+01 -6.5567832908e+02  6.7517080137e+02  3.3000000000e-01 0. 9.
#pdf   21   21  1.608352e-02  1.679984e-01  2.784037e+02  5.530821e+00  3.503127e-01
</event>
<event>
    12  9999  1.000000e+00  2.225409e+02  7.897379e-03  1.043826e-01
       21    -1     0     0   101   102  0.0000000000e+00  0.0000000000e+00  6.1838189755e+02  6.1838189755e+02  0.0000000000e+00 0. 9.
       21    -1     0     0   102   103  0.0000000000e+00  0.0000000000e+00 -3.0298258023e+02  3.0298258023e+02  0.0000000000e+00 0. 9.
        6     2     1     2   101     0 -1.2010362180e+02 -3.6136164873e+01  5.5519798393e+02  6.0449119101e+02  2.0355366927e+02  1.986778e-13 9.
       -6     2     1     2     0   103  1.2010362180e+02  3.6136164873e+01 -2.3979866660e+02  3.1687328676e+02  1.6484713215e+02  2.869727e-13 9.
       24     2     3     0     0     0 -1.2571557173e+02 -3.4824925770e+01  2.1307862786e+02  2.6228963181e+02  7.9850916531e+01  4.700799e-14 9.
        5     1     3     0   101     0  5.6119499262e+00 -1.3112391031e+00  3.4211935606e+02  3.4220155921e+02  4.8000000000e+00 0. 9.
      -24     2     4     0     0     0  1.6113041889e+01 -2.5277778822e+01 -1.1066231641e+02  1.3999776519e+02  8.0340710502e+01  6.584435e-14 9.
       -5     1     4     0     0   103  1.0399057991e+02  6.1413943695e+01 -1.2913635019e+02  1.7687552157e+02  4.8000000000e+00 0. 9.
      -15     1     5     0     0     0 -2.4674461463e+01 -4.5283004516e+00  7.0242132310e-01  2.5159193916e+01  1.7768200000e+00  1.824112e-02 9.
       16     1     5     0     0     0 -1.0104111026e+02 -3.0296625319e+01  2.1237620654e+02  2.3713043789e+02  0.0000000000e+00 0. 9.
        3     1     7     0   104     0  2.3731460723e+01  2.2017375475e+01 -2.1790645786e+01  3.9026007926e+01  5.0000000000e-01 0. 9.
       -4     1     7     0     0   104 -7.6184188345e+00 -4.7295154297e+01 -8.8871670627e+01  1.0097175727e+02  1.5000000000e+00 0. 9.
#pdf   21   21  9.513568e-02  4.661270e-02  2.071359e+02  8.719174e-01  2.045533e+00
</event>
<event>
    12  9999  1.000000e+00  1.675545e+02  7.871796e-03  1.080871e-01
       21    -1     0     0   101   102  0.0000000000e+00  0.0000000000e+00  3.3934770417e+02  3.3934770417e+02  0.0000000000e+00 0. 9.
       21    -1     0     0   103   101  0.0000000000e+00  0.0000000000e+00 -9.2824013604e+01  9.2824013604e+01  0.0000000000e+00 0. 9.
        6     2     1     2   103     0 -2.0544979293e+01  1.8211184098e+01  5.5002094838e+01  1.8044335164e+02  1.6964913590e+02  1.481744e-13 9.
       -6     2     1     2     0   102  2.0544979293e+01 -1.8211184098e+01  1.9152159573e+02  2.5172836613e+02  1.6103696870e+02  1.205018e-13 9.
       24     2     3     0     0     0  2.3341201512e+01 -8.3476049345e+00 -2.3379710960e+01  8.6645091415e+01  7.9663459539e+01  1.111834e-13 9.
        5     1     3     0   103     0 -4.3886180805e+01  2.6558789033e+01  7.8381805797e+01  9.3798260221e+01  4.8000000000e+00 0. 9.
      -24     2     4     0     0     0  5.5199530893e+01 -2.4098019824e+01  1.9117731501e+02  2.1624948071e+02  8.1162610638e+01  4.873170e-14 9.
       -5     1     4     0     0   102 -3.4654551599e+01  5.8868357252e+00  3.4428071721e-01  3.5478885420e+01  4.8000000000e+00 0. 9.
       -3     1     5     0     0   104  2.9238028518e+00 -2.9066529796e+01  1.9268814491e+01  3.4999271269e+01  5.0000000000e-01 0. 9.
        4     1     5     0   104     0  2.0417398660e+01  2.0718924862e+01 -4.2648525450e+01  5.1645820146e+01  1.5000000000e+00 0. 9.
       15     1     7     0     0     0  6.0227791285e+01 -1.5860918980e+01  6.6235224143e+01  9.0935238497e+01  1.7768200000e+00  3.676749e-02 9.
      -16     1     7     0     0     0 -5.0282603920e+00 -8.2371008436e+00  1.2494209087e+02  1.2531424222e+02  0.0000000000e+00 0. 9.
#pdf   21   21  5.220734e-02  1.428062e-02  1.633605e+02  1.836045e+00  6.124531e+00
</event>
<event>
    12  9999  1.000000e+00  1.747311e+02  7.875566e-03  1.074975e-01
       -1    -1     0     0     0   101  0.0000000000e+00  0.0000000000e+00  9.5506761663e+01  9.5506761663e+01  0.0000000000e+00 0. 9.
        1    -1     0     0   102     0  0.0000000000e+00  0.0000000000e+00 -3.2432550765e+02  3.2432550765e+02  0.0000000000e+00 0. 9.
       -6     2     1     2     0   101 -2.5104448410e+00 -3.3363157527e+01 -8.9672191170e+01  1.9694145174e+02  1.7212039662e+02  1.596121e-13 9.
        6     2     1     2   102     0  2.5104448410e+00  3.3363157527e+01 -1.3914655482e+02  2.2289081757e+02  1.7087758842e+02  2.684105e-13 9.
      -24     2     3     0     0     0 -9.1901955843e+00 -8.6543580540e+01 -7.9494924077e+01  1.4217473532e+02  7.9498184779e+01  3.104292e-13 9.
       -5     1     3     0     0   101  6.6797507433e+00  5.3180423013e+01 -1.0177267094e+01  5.4766716419e+01  4.8000000000e+00 0. 9.
       24     2     4     0     0     0  3.5631133680e+01 -3.6109426445e+01 -8.6019286632e+01  1.2924805716e+02  8.2050437173e+01  5.869137e-16 9.
        5     1     4     0   102     0 -3.3120688839e+01  6.9472583972e+01 -5.3127268183e+01  9.3642760412e+01  4.8000000000e+00 0. 9.
        3     1     5     0   103     0  2.2948556968e+01 -4.1013356386e+01 -2.4357621767e+00  4.7062879282e+01  5.0000000000e-01 0. 9.
       -4     1     5     0     0   103 -3.2138752553e+01 -4.5530224155e+01 -7.7059161900e+01  9.5111856043e+01  1.5000000000e+00 0. 9.
       -1     1     7     0     0   104 -1.5800021998e+00  1.4328344859e+01  7.8181157227e+00  1.6402125070e+01  3.3000000000e-01 0. 9.
        2     1     7     0   104     0  3.7211135880e+01 -5.0437771305e+01 -9.3837402355e+01  1.1284593209e+02  3.3000000000e-01 0. 9.
#pdf   -1    1  1.469335e-02  4.989623e-02  1.741222e+02  4.376765e-01  4.337082e-01
</event>
<event>
    12  9999  1.000000e+00  1.861819e+02  7.881279e-03  1.066619e-01
       -1    -1     0     0     0   101  0.0000000000e+00  0.0000000000e+00  2.6109279270e+03  2.6109279270e+03  0.0000000000e+00 0. 9.
        1    -1     0     0   102     0  0.0000000000e+00  0.0000000000e+00 -1.4216520633e+01  1.4216520633e+01  0.0000000000e+00 0. 9.
       -6     2     1     2     0   101  5.6075335347e+01  4.5206043012e+01  9.6258477382e+02  9.8047639969e+02  1.7197817880e+02  6.409548e-14 9.
        6     2     1     2   102     0 -5.6075335347e+01 -4.5206043012e+01  1.6341266325e+03  1.6446680479e+03  1.7139167771e+02  4.518035e-14 9.
      -24     2     3     0     0     0  4.3112862349e+01  1.7703111777e+01  9.3357521399e+02  9.3817945542e+02  8.0286308439e+01  2.975272e-13 9.
       -5     1     3     0     0   101  1.2962472998e+01  2.7502931235e+01  2.9009559833e+01  4.2296944268e+01  4.8000000000e+00 0. 9.
       24     2     4     0     0     0 -7.4800686446e+00  3.2067971428e+01  9.7282902948e+02  9.7708259793e+02  8.4910401980e+01  4.731407e-14 9.
        5     1     4     0   102     0 -4.8595266702e+01 -7.7274014440e+01  6.6129760303e+02  6.6758544998e+02  4.8000000000e+00 0. 9.
        1     1     5     0   103     0 -2.2465692567e+01 -1.7310519082e+00  3.2298887544e+02  3.2377403608e+02  3.3000000000e-01 0. 9.
       -2     1     5     0     0   103  6.5578554916e+01  1.9434163685e+01  6.1058633855e+02  6.1440541934e+02  3.3000000000e-01 0. 9.
       -3     1     7     0     0   104  2.4690625825e+01  1.4037196583e+01  7.9280913991e+02  7.9331787589e+02  5.0000000000e-01 0. 9.
        4     1     7     0   104     0 -3.2170694470e+01  1.8030774845e+01  1.8001988957e+02  1.8376472204e+02  1.5000000000e+00 0. 9.
#pdf   -1    1  4.016812e-01  2.187157e-03  1.859116e+02  3.370974e-03  1.209364e+00
</event>
<event>
    12  9999  1.000000e+00  1.997281e+02  7.887610e-03  1.057526e-01
       21    -1     0     0   101   102  0.0000000000e+00  0.0000000000e+00  7.1421080399e+01  7.1421080399e+01  0.0000000000e+00 0. 9.
       21    -1     0     0   102   103  0.0000000000e+00  0.0000000000e+00 -5.6721340631e+02  5.6721340631e+02  0.0000000000e+00 0. 9.
        6     2     1     2   101     0  3.5453895333e-01 -1.0740353421e+02 -2.0563409917e+02  2.8499312087e+02  1.6552960867e+02  1.792083e-13 9.
       -6     2     1     2     0   103 -3.5453895333e-01  1.0740353421e+02 -2.9015822674e+02  3.5364136584e+02  1.7127397417e+02  3.070928e-14 9.
       24     2     3     0     0     0 -4.5152714041e+00 -4.6445961377e+01 -2.0319432141e+02  2.2360474043e+02  8.0830270841e+01  4.261241e-14 9.
        5     1     3     0   101     0  4.8698103574e+00 -6.0957572829e+01 -2.4397777592e+00  6.1388380445e+01  4.8000000000e+00 0. 9.
      -24     2     4     0     0     0  2.3012297757e+01  1.3143269035e+02 -2.6944755189e+02  3.1395029057e+02  9.0325432679e+01  1.882203e-14 9.
       -5     1     4     0     0   103 -2.3366836710e+01 -2.4029156146e+01 -2.0710674850e+01  3.9691075265e+01  4.8000000000e+00 0. 9.
       -3     1     5     0     0   104 -2.6353220107e+01  9.5347334559e+00 -1.0316457492e+02  1.0690455028e+02  5.0000000000e-01 0. 9.
        4     1     5     0   104     0  2.1837948703e+01 -5.5980694833e+01 -1.0002974648e+02  1.1670019014e+02  1.5000000000e+00 0. 9.
        1     1     7     0   105     0 -3.2630026258e+01  7.5376333457e+01 -1.3569592901e+02  1.5861842361e+02  3.3000000000e-01 0. 9.
       -2     1     7     0     0   105  5.5642324015e+01  5.6056356895e+01 -1.3375162288e+02  1.5533186696e+02  3.3000000000e-01 0. 9.
#pdf   21   21  1.098786e-02  8.726360e-02  1.973213e+02  7.546757e+00  9.822537e-01
</event>
<event>
    12  9999  1.000000e+00  1.968102e+02  7.886282e-03  1.059418e-01
        1    -1     0     0   101     0  0.0000000000e+00  0.0000000000e+00  5.3785574249e+01  5.3785574249e+01  0.0000000000e+00 0. 9.
       -1    -1     0     0     0   102  0.0000000000e+00  0.0000000000e+00 -9.4277980429e+02  9.4277980429e+02  0.0000000000e+00 0. 9.
        6     2     1     2   101     0  5.5300661626e+01  7.9425135962e+01 -2.0399673797e+02  2.8411336778e+02  1.7245063425e+02  8.197046e-14 9.
       -6     2     1     2     0   102 -5.5300661626e+01 -7.9425135962e+01 -6.8499749207e+02  7.1245201076e+02  1.7029324146e+02  2.091661e-13 9.
       24     2     3     0     0     0  2.4807887786e+01  1.1111724795e+02 -1.0197084017e+02  1.7290849810e+02  8.0850617697e+01  6.807724e-14 9.
        5     1     3     0   101     0  3.0492773840e+01 -3.1692111990e+01 -1.0202589780e+02  1.1120486968e+02  4.8000000000e+00 0. 9.
      -24     2     4     0     0     0 -7.8899389323e+01 -6.9266588173e+01 -2.7900077121e+02  3.0561485244e+02  6.7350084032e+01  1.487357e-14 9.
       -5     1     4     0     0   102  2.3598727697e+01 -1.0158547788e+01 -4.0599672086e+02  4.0683715832e+02  4.8000000000e+00 0. 9.
       -1     1     5     0     0   103 -2.4894966765e+01  4.3463792754e+01 -6.2635007889e+01  8.0200459874e+01  3.3000000000e-01 0. 9.
        2     1     5     0   103     0  4.9702854551e+01  6.7653455198e+01 -3.9335832278e+01  9.2708038226e+01  3.3000000000e-01 0. 9.
        3     1     7     0   104     0 -2.4285998893e+01  1.1227209879e+01 -4.7810649393e+01  5.4790219742e+01  5.0000000000e-01 0. 9.
       -4     1     7     0     0   104 -5.4613390430e+01 -8.0493798053e+01 -2.3119012182e+02  2.5082463269e+02  1.5000000000e+00 0. 9.
#pdf    1   -1  8.274704e-03  1.450430e-01  1.958732e+02  7.288234e-01  5.658174e-02
</event>
<event>
    12  9999  1.000000e+00  1.971331e+02  7.886430e-03  1.059207e-01
       21    -1     0     0   101   102  0.0000000000e+00  0.0000000000e+00  3.8276635297e+02  3.8276635297e+02  0.0000000000e+00 0. 9.
       21    -1     0     0   102   103  0.0000000000e+00  0.0000000000e+00 -1.1778463144e+02  1.1778463144e+02  0.0000000000e+00 0. 9.
        6     2     1     2   101     0 -8.0324722174e+01  5.5674786163e+01  2.2554268409e+02  2.9963261398e+02  1.7134310084e+02  2.690837e-13 9.
       -6     2     1     2     0   103  8.0324722174e+01 -5.5674786163e+01  3.9439037438e+01  2.0091837042e+02  1.7105850196e+02  4.183810e-13 9.
       24     2     3     0     0     0 -4.3224071350e+01  1.0008602229e+02  1.1241868122e+02  1.7247563929e+02  7.2279693278e+01  2.974934e-14 9.
        5     1     3     0   101     0 -3.7100650824e+01 -4.4411236128e+01  1.1312400287e+02  1.2715697469e+02  4.8000000000e+00 0. 9.
      -24     2     4     0     0     0  4.1959769212e+01  2.8502451108e+01  5.0508087168e+01  1.0762720925e+02  8.0371247042e+01  9.801802e-14 9.
       -5     1     4     0     0   103  3.8364952961e+01 -8.4177237272e+01 -1.1069049730e+01  9.3291161169e+01  4.8000000000e+00 0. 9.
      -15     1     5     0     0     0  4.1572191983e+00  3.5461916341e+01  1.6843883019e+00  3.5788604824e+01  1.7768200000e+00  1.053227e-01 9.
       16     1     5     0     0     0 -4.7381290548e+01  6.4624105950e+01  1.1073429292e+02  1.3668703447e+02  0.0000000000e+00 0. 9.
        3     1     7     0   104     0  3.8938759550e+01  9.3793954360e+00 -1.2287442924e+01  4.1897867578e+01  5.0000000000e-01 0. 9.
       -4     1     7     0     0   104  3.0210096627e+00  1.9123055673e+01  6.2795530092e+01  6.5729341676e+01  1.5000000000e+00 0. 9.
#pdf   21   21  5.888713e-02  1.812071e-02  1.970095e+02  1.585889e+00  5.023634e+00
</event>
<event>
    12  9999  1.000000e+00  1.933157e+02  7.884667e-03  1.061731e-01
       21    -1     0     0   101   102  0.0000000000e+00  0.0000000000e+00  8.2796678518e+02  8.2796678518e+02  0.0000000000e+00 0. 9.
       21    -1     0     0   103   101  0.0000000000e+00  0.0000000000e+00 -4.7022779950e+01  4.7022779950e+01  0.0000000000e+00 0. 9.
        6     2     1     2   103     0 -6.3018380455e+01 -7.4107968528e+01  4.7314945745e+02  5.1019561072e+02  1.6421280353e+02  2.923478e-13 9.
       -6     2     1     2     0   102  6.3018380455e+01  7.4107968528e+01  3.0779454778e+02  3.6479395440e+02  1.6992303626e+02  1.424310e-13 9.
       24     2     3     0     0     0  2.4366144288e+01 -5.8835884977e+01  2.6038407699e+02  2.7962796594e+02  7.9602521548e+01  1.214498e-14 9.
        5     1     3     0   103     0 -8.7384524743e+01 -1.5272083551e+01  2.1276538045e+02  2.3056764478e+02  4.8000000000e+00 0. 9.
      -24     2     4     0     0     0  8.5611882908e+01 -8.7256553374e-01  1.8727107831e+02  2.2098333750e+02  8.0206127043e+01  1.143819e-14 9.
       -5     1     4     0     0   102 -2.2593502453e+01  7.4980534062e+01  1.2052346947e+02  1.4381061690e+02  4.8000000000e+00 0. 9.
       -3     1     5     0     0   104  9.4443800925e+00  3.6564889167e+00 -1.2498183904e+00  1.0216568531e+01  5.0000000000e-01 0. 9.
        4     1     5     0   104     0  1.4921764195e+01 -6.2492373894e+01  2.6163389538e+02  2.6941139741e+02  1.5000000000e+00 0. 9.
       15     1     7     0     0     0  9.8635582108e+00  2.8440539747e+01  8.6189936967e+01  9.1312739556e+01  1.7768200000e+00  1.035215e-02 9.
      -16     1     7     0     0     0  7.5748324697e+01 -2.9313105280e+01  1.0108114135e+02  1.2967059794e+02  0.0000000000e+00 0. 9.
#pdf   21   21  1.273795e-01  7.234274e-03  1.908642e+02  5.804557e-01  1.033547e+01
</event>
<event>
    12  9999  1.000000e+00  1.890232e+02  7.882643e-03  1.064645e-01
       21    -1     0     0   101   102  0.0000000000e+00  0.0000000000e+00  5.6008637504e+01  5.6008637504e+01  0.0000000000e+00 0. 9.
       21    -1     0     0   103   101  0.0000000000e+00  0.0000000000e+00 -6.9393286973e+02  6.9393286973e+02  0.0000000000e+00 0. 9.
        6     2     1     2   103     0 -1.8938727325e-01 -7.9062101087e+01 -4.2540009483e+02  4.6548360461e+02  1.7163593384e+02  4.918712e-14 9.
       -6     2     1     2     0   102  1.8938727325e-01  7.9062101087e+01 -2.1252413740e+02  2.8445790262e+02  1.7175254785e+02  2.395755e-14 9.
       24     2     3     0     0     0 -2.7245160891e+00 -8.6507749110e+01 -4.3587703820e+02  4.5153115339e+02  8.0003602450e+01  2.094398e-13 9.
        5     1     3     0   103     0  2.5351288158e+00  7.4456480239e+00  1.0476943374e+01  1.3952451221e+01  4.8000000000e+00 0. 9.
      -24     2     4     0     0     0  3.9141649678e+00  1.1496801872e+02 -1.1827826391e+02  1.8342110953e+02  8.0128582226e+01  1.253664e-13 9.
       -5     1     4     0     0   102 -3.7247776946e+00 -3.5905917637e+01 -9.4245873485e+01  1.0103679310e+02  4.8000000000e+00 0. 9.
       -3     1     5     0     0   104 -2.4724098696e+00  3.6014843467e+00  1.7414332069e+00  4.7292800379e+00  5.0000000000e-01 0. 9.
        4     1     5     0   104     0 -2.5210621951e-01 -9.0109233457e+01 -4.3761847141e+02  4.4680187335e+02  1.5000000000e+00 0. 9.
        1     1     7     0   105     0 -2.9688043744e+01  7.2055432060e+01 -3.8819888243e+01  8.7065824833e+01  3.3000000000e-01 0. 9.
       -2     1     7     0     0   105  3.3602208711e+01  4.2912586663e+01 -7.9458375670e+01  9.6355284695e+01  3.3000000000e-01 0. 9.
#pdf   21   21  8.616713e-03  1.067589e-01  1.889702e+02  9.080628e+00  7.514217e-01
</event>
<event>
    12  9999  1.000000e+00  2.220869e+02  7.897194e-03  1.044081e-01
       21    -1     0     0   101   102  0.0000000000e+00  0.0000000000e+00  8.8000072125e+02  8.8000072125e+02  0.0000000000e+00 0. 9.
       21    -1     0     0   103   101  0.0000000000e+00  0.0000000000e+00 -6.1545312336e+01  6.1545312336e+01  0.0000000000e+00 0. 9.
        6     2     1     2   103     0 -1.1327940297e+02  8.6856424687e+01  2.6745209916e+02  3.4722605031e+02  1.6928981960e+02  1.064756e-13 9.
       -6     2     1     2     0   102  1.1327940297e+02 -8.6856424687e+01  5.5100330975e+02  5.9431998327e+02  1.7098343053e+02  1.222768e-14 9.
       24     2     3     0     0     0 -1.0490802827e+02  2.8214211930e+01  2.5169837664e+02  2.8574264763e+02  8.0591883728e+01  2.459263e-13 9.
        5     1     3     0   103     0 -8.3713747003e+00  5.8642212758e+01  1.5753722521e+01  6.1483402677e+01  4.8000000000e+00 0. 9.
      -24     2     4     0     0     0  8.1251389113e+01 -1.5865423392e+01  1.7127538708e+02  2.0665795109e+02  8.0738780271e+01  6.667897e-14 9.
       -5     1     4     0     0   102  3.2028013857e+01 -7.0991001295e+01  3.7972792267e+02  3.8766203218e+02  4.8000000000e+00 0. 9.
       -1     1     5     0     0   104 -5.3184097569e+01  2.9639118574e+01  5.3993081585e+01  8.1378051974e+01  3.3000000000e-01 0. 9.
        2     1     5     0   104     0 -5.1723930701e+01 -1.4249066443e+00  1.9770529505e+02  2.0436459566e+02  3.3000000000e-01 0. 9.
       13     1     7     0     0     0  4.9457399740e+01 -1.1262336078e+01  1.6665335422e+02  1.7420168266e+02  1.0566000000e-01  2.270897e+06 9.
      -14     1     7     0     0     0  3.1793989373e+01 -4.6030873140e+00  4.6220328538e+00  3.2456268436e+01  0.0000000000e+00 0. 9.
#pdf   21   21  1.353847e-01  9.468510e-03  2.214392e+02  5.185850e-01  8.473817e+00
</event>
<event>
    12  9999  1.000000e+00  1.865642e+02  7.881464e-03  1.066352e-01
       21    -1     0     0   101   102  0.0000000000e+00  0.0000000000e+00  6.4671121833e+02  6.4671121833e+02  0.0000000000e+00 0. 9.
       21    -1     0     0   102   103  0.0000000000e+00  0.0000000000e+00 -8.2108535652e+01  8.2108535652e+01  0.0000000000e+00 0. 9.
        6     2     1     2   101     0  6.3714022961e+01  3.9411019273e+01  4.9602366451e+02  5.2988792479e+02  1.7067229393e+02  1.047695e-13 9.
       -6     2     1     2     0   103 -6.3714022961e+01 -3.9411019273e+01  6.8579018162e+01  1.9893182919e+02  1.7104995110e+02  7.973407e-15 9.
       24     2     3     0     0     0  4.6799521015e-02  2.5924777825e+01  1.1367371858e+02  1.4200918703e+02  8.1072798206e+01  2.209308e-14 9.
        5     1     3     0   101     0  6.3667223440e+01  1.3486241448e+01  3.8234994594e+02  3.8787873776e+02  4.8000000000e+00 0. 9.
      -24     2     4     0     0     0 -4.4873234669e+01  2.0251388740e+01  9.2112351443e+01  1.3191365249e+02  8.0577915640e+01  8.231049e-14 9.
       -5     1     4     0     0   103 -1.8840788292e+01 -5.9662408013e+01 -2.3533333282e+01  6.7018176704e+01  4.8000000000e+00 0. 9.
       -1     1     5     0     0   104 -3.9733779396e+01  1.5045837855e+01  7.0415091590e+01  8.2240771430e+01  3.3000000000e-01 0. 9.
        2     1     5     0   104     0  3.9780578917e+01  1.0878939970e+01  4.3258626988e+01  5.9768415595e+01  3.3000000000e-01 0. 9.
        1     1     7     0   105     0 -5.2021186206e+01  3.1067159891e+01  2.8442024138e+01  6.6936013289e+01  3.3000000000e-01 0. 9.
       -2     1     7     0     0   105  7.1479515367e+00 -1.0815771151e+01  6.3670327306e+01  6.4977639200e+01  3.3000000000e-01 0. 9.
#pdf   21   21  9.949403e-02  1.263208e-02  1.863914e+02  8.295270e-01  6.760617e+00
</event>
<event>
    12  9999  1.000000e+00  3.005041e+02  7.924634e-03  1.007600e-01
       21    -1     0     0   101   102  0.0000000000e+00  0.0000000000e+00  2.1746857004e+02  2.1746857004e+02  0.0000000000e+00 0. 9.
       21    -1     0     0   103   101  0.0000000000e+00  0.0000000000e+00 -1.1729276462e+03  1.1729276462e+03  0.0000000000e+00 0. 9.
        6     2     1     2   103     0  1.4136556560e+02 -2.0264243932e+02 -1.0362907971e+03  1.0788890075e+03  1.7045437261e+02  3.282302e-14 9.
       -6     2     1     2     0   102 -1.4136556560e+02  2.0264243932e+02  8.0831720879e+01  3.1150720874e+02  1.7162398622e+02  1.645412e-13 9.
       24     2     3     0     0     0  9.7187543080e+01 -1.0555781263e+02 -8.3495433973e+02  8.5099312897e+02  8.0328611226e+01  7.180647e-14 9.
        5     1     3     0   103     0  4.4178022518e+01 -9.7084626694e+01 -2.0133645732e+02  2.2789587855e+02  4.8000000000e+00 0. 9.
      -24     2     4     0     0     0 -1.3012643968e+02  1.9098684159e+02  1.1741903587e+02  2.7121027923e+02  7.9742846758e+01  3.868385e-14 9.
       -5     1     4     0     0   102 -1.1239125913e+01  1.1655597733e+01 -3.6587314993e+01  4.0296929513e+01  4.8000000000e+00 0. 9.
      -11     1     5     0     0     0  3.5084432083e+01  6.8463258783e+00 -2.0290457755e+02  2.0602926284e+02  5.1100000000e-04 0. 9.
       12     1     5     0     0     0  6.2103110997e+01 -1.1240413850e+02 -6.3204976218e+02  6.4496386613e+02  0.0000000000e+00 0. 9.
        1     1     7     0   104     0 -3.1474229909e+01  1.6679610845e+01  4.6847730638e+01  5.8852827733e+01  3.3000000000e-01 0. 9.
       -2     1     7     0     0   104 -9.8652209775e+01  1.7430723074e+02  7.0571305234e+01  2.1235745149e+02  3.3000000000e-01 0. 9.
#pdf   21   21  3.345670e-02  1.804504e-01  3.001714e+02  2.822300e+00  3.038375e-01
</event>
<event>
    12  9999  1.000000e+00  1.867315e+02  7.881545e-03  1.066235e-01
       21    -1     0     0   101   102  0.0000000000e+00  0.0000000000e+00  2.4746296630e+01  2.4746296630e+01  0.0000000000e+00 0. 9.
       21    -1     0     0   102   103  0.0000000000e+00  0.0000000000e+00 -1.5832998785e+03  1.5832998785e+03  0.0000000000e+00 0. 9.
        6     2     1     2   101     0 -2.9072526911e+00 -6.9644250043e+01 -5.0468464594e+02  5.3738100203e+02  1.7091803830e+02  3.147914e-13 9.
       -6     2     1     2     0   103  2.9072526911e+00  6.9644250043e+01 -1.0538689360e+03  1.0706651731e+03  1.7557165229e+02  1.746497e-13 9.
       24     2     3     0     0     0 -3.7394768355e+01 -6.0278636271e+00 -1.3804064779e+02  1.6363336694e+02  7.9284011588e+01  5.147533e-15 9.
        5     1     3     0   101     0  3.4487515664e+01 -6.3616386416e+01 -3.6664399815e+02  3.7374763509e+02  4.8000000000e+00 0. 9.
      -24     2     4     0     0     0 -5.0552631545e+01 -7.5054564732e+00 -5.5118071234e+02  5.5926657457e+02  7.9793629738e+01  3.592063e-13 9.
       -5     1     4     0     0   103  5.3459884236e+01  7.7149706516e+01 -5.0268822361e+02  5.1139859855e+02  4.8000000000e+00 0. 9.
      -11     1     5     0     0     0 -4.8894513521e+01 -1.3224350212e+01 -1.4093636064e+02  1.4976185977e+02  5.1100000000e-04 0. 9.
       12     1     5     0     0     0  1.1499745166e+01  7.1964865851e+00  2.8957128566e+00  1.3871507164e+01  0.0000000000e+00 0. 9.
       11     1     7     0     0     0 -1.9813497247e+01 -3.9708948826e+01 -1.7839019706e+02  1.8382719520e+02  5.1100000000e-04 0. 9.
      -12     1     7     0     0     0 -3.0739134298e+01  3.2203492353e+01 -3.7279051528e+02  3.7543937937e+02  0.0000000000e+00 0. 9.
#pdf   21   21  3.807123e-03  2.435846e-01  1.845853e+02  1.617043e+01  1.782849e-01
</event>
<event>
    12  9999  1.000000e+00  1.900378e+02  7.883126e-03  1.063949e-01
       21    -1     0     0   101   102  0.0000000000e+00  0.0000000000e+00  2.4356623614e+02  2.4356623614e+02  0.0000000000e+00 0. 9.
       21    -1     0     0   102   103  0.0000000000e+00  0.0000000000e+00 -2.0295716267e+02  2.0295716267e+02  0.0000000000e+00 0. 9.
        6     2     1     2   101     0 -7.2481147432e+01 -4.0341855587e+01  1.3621627541e+02  2.3405768581e+02  1.7131008305e+02  3.816078e-13 9.
       -6     2     1     2     0   103  7.2481147432e+01  4.0341855587e+01 -9.5607201941e+01  2.1246571301e+02  1.7064571514e+02  1.571501e-13 9.
       24     2     3     0     0     0  9.8244482384e+00 -3.2335271659e+01  1.6944219102e+01  8.8843430720e+01  8.0398750268e+01  3.329785e-14 9.
        5     1     3     0   101     0 -8.2305595671e+01 -8.0065839286e+00  1.1927205631e+02  1.4521425509e+02  4.8000000000e+00 0. 9.
      -24     2     4     0     0     0  7.3000644321e+01 -1.1038741104e+01 -1.1390152384e+02  1.5771210301e+02  8.0303190644e+01  6.774537e-14 9.
       -5     1     4     0     0   103 -5.1949688846e-01  5.1380596692e+01  1.8294321899e+01  5.4753609992e+01  4.8000000000e+00 0. 9.
       -1     1     5     0     0   104  2.5078090059e+01 -1.8244235729e+00  4.0299390522e+01  4.7501462071e+01  3.3000000000e-01 0. 9.
        2     1     5     0   104     0 -1.5253641820e+01 -3.0510848086e+01 -2.3355171420e+01  4.1341968649e+01  3.3000000000e-01 0. 9.
        3     1     7     0   105     0  5.7859899167e+00  1.8456231617e+01 -6.8981012266e+01  7.1643144949e+01  5.0000000000e-01 0. 9.
       -4     1     7     0     0   105  6.7214654404e+01 -2.9494972721e+01 -4.4920511574e+01  8.6068958066e+01  1.5000000000e+00 0. 9.
#pdf   21   21  3.747173e-02  3.122418e-02  1.897391e+02  2.575715e+00  3.079140e+00
</event>
<event>
    12  9999  1.000000e+00  3.246589e+02  7.931681e-03  9.986832e-02
       21    -1     0     0   101   102  0.0000000000e+00  0.0000000000e+00  1.4527681244e+02  1.4527681244e+02  0.0000000000e+00 0. 9.
       21    -1     0     0   103   101  0.0000000000e+00  0.0000000000e+00 -1.4905350513e+03  1.4905350513e+03  0.0000000000e+00 0. 9.
        6     2     1     2   103     0 -2.5605379314e+02  1.0235846178e+02 -1.2584935522e+03  1.2996739234e+03  1.7118845285e+02  1.506705e-13 9.
       -6     2     1     2     0   102  2.5605379314e+02 -1.0235846178e+02 -8.6764686631e+01  3.3613794039e+02  1.7152202319e+02  1.333708e-13 9.
       24     2     3     0     0     0 -1.5928579298e+02  1.2026525116e+02 -6.8793140279e+02  7.2066709669e+02  7.9219661876e+01  6.206849e-14 9.
        5     1     3     0   103     0 -9.6768000168e+01 -1.7906789374e+01 -5.7056214943e+02  5.7900682667e+02  4.8000000000e+00 0. 9.
      -24     2     4     0     0     0  2.0384267106e+02 -8.9968626239e+01 -1.2717375821e+02  2.6879224743e+02  8.0186777251e+01  7.539548e-14 9.
       -5     1     4     0     0   102  5.2211122084e+01 -1.2389835543e+01  4.0409071582e+01  6.7345692960e+01  4.8000000000e+00 0. 9.
       -3     1     5     0     0   104 -7.7451120864e+01  4.2629669361e+01 -4.3233740286e+02  4.4128431283e+02  5.0000000000e-01 0. 9.
        4     1     5     0   104     0 -8.1834672113e+01  7.7635581796e+01 -2.5559399993e+02  2.7938278386e+02  1.5000000000e+00 0. 9.
        3     1     7     0   105     0  5.1126068131e+01 -5.3881535182e+01 -6.9134787037e+01  1.0147395456e+02  5.0000000000e-01 0. 9.
       -4     1     7     0     0   105  1.5271660293e+02 -3.6087091057e+01 -5.8038971177e+01  1.6731829286e+02  1.5000000000e+00 0. 9.
#pdf   21   21  2.235028e-02  2.293131e-01  3.245709e+02  4.130363e+00  1.830567e-01
</event>
<event>
    12  9999  1.000000e+00  2.327506e+02  7.901437e-03  1.038249e-01
       21    -1     0     0   101   102  0.0000000000e+00  0.0000000000e+00  8.5958333572e+02  8.5958333572e+02  0.0000000000e+00 0. 9.
       21    -1     0     0   102   103  0.0000000000e+00  0.0000000000e+00 -1.3446763098e+02  1.3446763098e+02  0.0000000000e+00 0. 9.
        6     2     1     2   101     0 -1.5939008624e+02 -1.7011753239e+01  7.2374771654e+02  7.5979781548e+02  1.6669542247e+02  7.102271e-14 9.
       -6     2     1     2     0   103  1.5939008624e+02  1.7011753239e+01  1.3679882076e+00  2.3425315122e+02  1.7081588955e+02  1.714269e-13 9.
       24     2     3     0     0     0 -5.7637570239e+01 -5.5233481150e+01  4.4786937938e+02  4.6324027990e+02  8.7359882041e+01  1.390769e-14 9.
        5     1     3     0   101     0 -1.0175251600e+02  3.8221727911e+01  2.7587833716e+02  2.9655753558e+02  4.8000000000e+00 0. 9.
      -24     2     4     0     0     0  4.5725293242e+01 -9.2158091166e+00  5.1712356224e+01  1.0711084675e+02  8.1380784740e+01  1.410869e-13 9.
       -5     1     4     0     0   103  1.1366479300e+02  2.6227562355e+01 -5.0344368017e+01  1.2714230447e+02  4.8000000000e+00 0. 9.
       -3     1     5     0     0   104 -5.3324505334e+01 -1.9163416057e+01  1.1309040924e+02  1.2649280630e+02  5.0000000000e-01 0. 9.
        4     1     5     0   104     0 -4.3130649058e+00 -3.6070065093e+01  3.3477897015e+02  3.3674747360e+02  1.5000000000e+00 0. 9.
       11     1     7     0     0     0  5.4195474927e+01  1.4834787837e+01  5.8098414558e+01  8.0824787084e+01  5.1100000000e-04 0. 9.
      -12     1     7     0     0     0 -8.4701816850e+00 -2.4050596953e+01 -6.3860583338e+00  2.6286059663e+01  0.0000000000e+00 0. 9.
#pdf   21   21  1.322436e-01  2.068733e-02  2.312617e+02  5.349296e-01  4.464807e+00
</event>
<event>
    12  9999  1.000000e+00  3.040391e+02  7.925699e-03  1.006241e-01
       21    -1     0     0   101   102  0.0000000000e+00  0.0000000000e+00  4.0247551822e+02  4.0247551822e+02  0.0000000000e+00 0. 9.
       21    -1     0     0   102   103  0.0000000000e+00  0.0000000000e+00 -2.4946751582e+02  2.4946751582e+02  0.0000000000e+00 0. 9.
        6     2     1     2   101     0 -2.5037573819e+02  3.7185618149e+01  1.6863832962e+02  3.4895304519e+02  1.7105134043e+02  4.527749e-14 9.
       -6     2     1     2     0   103  2.5037573819e+02 -3.7185618149e+01 -1.5630327221e+01  3.0298998885e+02  1.6579458901e+02  4.721100e-14 9.
       24     2     3     0     0     0 -2.4701022721e+02 -1.7843857617e-01  1.1753056113e+02  2.8537283286e+02  8.1302747499e+01  2.670003e-14 9.
        5     1     3     0   101     0 -3.3655109769e+00  3.7364056725e+01  5.1107768497e+01  6.3580212330e+01  4.8000000000e+00 0. 9.
      -24     2     4     0     0     0  2.0241274663e+02  1.7687721919e+01  2.5223487284e+01  2.1930243799e+02  7.8572001965e+01  1.134604e-13 9.
       -5     1     4     0     0   103  4.7962991559e+01 -5.4873340068e+01 -4.0853814505e+01  8.3687550861e+01  4.8000000000e+00 0. 9.
       -1     1     5     0     0   104 -2.0454202431e+02 -6.2522251147e-01  5.8674294447e+01  2.1279241607e+02  3.3000000000e-01 0. 9.
        2     1     5     0   104     0 -4.2468202906e+01  4.4678393530e-01  5.8856266678e+01  7.2580416789e+01  3.3000000000e-01 0. 9.
        1     1     7     0   105     0  1.4270688813e+02  4.2107482398e+01 -3.1676271576e+00  1.4882351546e+02  3.3000000000e-01 0. 9.
       -2     1     7     0     0   105  5.9705858503e+01 -2.4419760479e+01  2.8391114442e+01  7.0478922528e+01  3.3000000000e-01 0. 9.
#pdf   21   21  6.191931e-02  3.837962e-02  3.025866e+02  1.448994e+00  2.455268e+00
</event>
<event>
    12  9999  1.000000e+00  1.952740e+02  7.885576e-03  1.060429e-01
       21    -1     0     0   101   102  0.0000000000e+00  0.0000000000e+00  3.5201331781e+02  3.5201331781e+02  0.0000000000e+00 0. 9.
       21    -1     0     0   102   103  0.0000000000e+00  0.0000000000e+00 -7.1074221971e+02  7.1074221971e+02  0.0000000000e+00 0. 9.
        6     2     1     2   101     0 -1.7496353424e+01  9.2141178211e+01  3.0991677030e+02  3.6603622610e+02  1.7069855066e+02  6.968854e-14 9.
       -6     2     1     2     0   103  1.7496353424e+01 -9.2141178211e+01 -6.6864567220e+02  6.9671931142e+02  1.7185646583e+02  3.581318e-14 9.
       24     2     3     0     0     0 -2.0241004656e+00  7.6634593955e+00  5.5221615836e+01  9.7208144797e+01  7.9606350040e+01  9.719867e-15 9.
        5     1     3     0   101     0 -1.5472252959e+01  8.4477718816e+01  2.5469515447e+02  2.6882808130e+02  4.8000000000e+00 0. 9.
      -24     2     4     0     0     0  3.2539481991e+01 -1.4231035009e+00 -2.2662478171e+02  2.4520898770e+02  8.7794150441e+01  4.984774e-14 9.
       -5     1     4     0     0   103 -1.5043128566e+01 -9.0718074710e+01 -4.4202089049e+02  4.5151032372e+02  4.8000000000e+00 0. 9.
       -3     1     5     0     0   104 -3.7545300223e+01  3.1787672391e+00  9.0361793966e+00  3.8751215053e+01  5.0000000000e-01 0. 9.
        4     1     5     0   104     0  3.5521199758e+01  4.4846921564e+00  4.6185436439e+01  5.8456929744e+01  1.5000000000e+00 0. 9.
       11     1     7     0     0     0 -2.4418144813e+01  1.3661573034e+01 -3.5459268428e+01  4.5169061221e+01  5.1100000000e-04 0. 9.
      -12     1     7     0     0     0  5.6957626803e+01 -1.5084676535e+01 -1.9116551328e+02  2.0003992648e+02  0.0000000000e+00 0. 9.
#pdf   21   21  5.415590e-02  1.093450e-01  1.947668e+02  1.744129e+00  7.240759e-01
</event>
<event>
    12  9999  1.000000e+00  2.481595e+02  7.907245e-03  1.030383e-01
       21    -1     0     0   101   102  0.0000000000e+00  0.0000000000e+00  8.6095707591e+01  8.6095707591e+01  0.0000000000e+00 0. 9.
       21    -1     0     0   103   101  0.0000000000e+00  0.0000000000e+00 -8.6204806839e+02  8.6204806839e+02  0.0000000000e+00 0. 9.
        6     2     1     2   103     0  1.7741910616e+02  2.7084469510e+01 -5.8428483213e+02  6.3501347077e+02  1.7216920536e+02  1.919523e-14 9.
       -6     2     1     2     0   102 -1.7741910616e+02 -2.7084469510e+01 -1.9166752867e+02  3.1313030522e+02  1.7059612769e+02  1.032318e-13 9.
       24     2     3     0     0     0  4.2093948749e+01 -3.6575331002e+01 -2.5309136988e+02  2.7158862590e+02  8.1212590463e+01  9.025486e-14 9.
        5     1     3     0   103     0  1.3532515741e+02  6.3659800512e+01 -3.3119346225e+02  3.6342484487e+02  4.8000000000e+00 0. 9.
      -24     2     4     0     0     0 -2.6968420861e+01  2.0346605902e+01 -9.3582642871e+01  1.2731103700e+02  7.9429899904e+01  2.465359e-13 9.
       -5     1     4     0     0   102 -1.5045068530e+02 -4.7431075411e+01 -9.8084885797e+01  1.8581926822e+02  4.8000000000e+00 0. 9.
       -1     1     5     0     0   104  6.2281384454e+01 -1.1326891225e+01 -1.9612483011e+02  2.0608815395e+02  3.3000000000e-01 0. 9.
        2     1     5     0   104     0 -2.0187435704e+01 -2.5248439777e+01 -5.6966539776e+01  6.5500471949e+01  3.3000000000e-01 0. 9.
       15     1     7     0     0     0 -1.0358164689e+01 -7.7396868212e+00  1.1427745856e+01  1.7347760446e+01  1.7768200000e+00  1.107144e-02 9.
      -16     1     7     0     0     0 -1.6610256172e+01  2.8086292723e+01 -1.0501038873e+02  1.0996327655e+02  0.0000000000e+00 0. 9.
#pdf   21   21  1.324549e-02  1.326228e-01  2.476169e+02  6.504615e+00  5.279463e-01
</event>
<event>
    12  9999  1.000000e+00  1.807196e+02  7.878598e-03  1.070523e-01
       21    -1     0     0   101   102  0.0000000000e+00  0.0000000000e+00  9.2576654702e+01  9.2576654702e+01  0.0000000000e+00 0. 9.
       21    -1     0     0   102   103  0.0000000000e+00  0.0000000000e+00 -3.6272089189e+02  3.6272089189e+02  0.0000000000e+00 0. 9.
        6     2     1     2   101     0 -5.6498231024e+01 -1.9177843466e+01 -1.7403100820e+02  2.5224131931e+02  1.7256607882e+02  1.197352e-13 9.
       -6     2     1     2     0   103  5.6498231024e+01  1.9177843466e+01 -9.6113228980e+01  2.0305622728e+02  1.6862455000e+02  1.019870e-13 9.
       24     2     3     0     0     0  2.9715974578e+01 -1.2361287941e+01 -9.2270112457e+01  1.3313112348e+02  9.0411734862e+01  4.724273e-15 9.
        5     1     3     0   101     0 -8.6214205603e+01 -6.8165555251e+00 -8.1760895748e+01  1.1911019583e+02  4.8000000000e+00 0. 9.
      -24     2     4     0     0     0  2.0360164612e+01 -3.6768914656e+00  1.6036598047e+01  8.2935777504e+01  7.8696346036e+01  7.038968e-14 9.
       -5     1     4     0     0   103  3.6138066412e+01  2.2854734931e+01 -1.1214982703e+02  1.2012044978e+02  4.8000000000e+00 0. 9.
       -1     1     5     0     0   104  2.5861778348e+00  2.9594666192e+01 -7.4323532359e+01  8.0041420184e+01  3.3000000000e-01 0. 9.
        2     1     5     0   104     0  2.7129796743e+01 -4.1955954132e+01 -1.7946580098e+01  5.3089703293e+01  3.3000000000e-01 0. 9.
        3     1     7     0   105     0 -2.7814624679e+01  8.4905507330e+00 -3.9600880426e+00  2.9354302837e+01  5.0000000000e-01 0. 9.
       -4     1     7     0     0   105  4.8174789291e+01 -1.2167442199e+01  1.9996686090e+01  5.3581474667e+01  1.5000000000e+00 0. 9.
#pdf   21   21  1.424256e-02  5.580321e-02  1.788689e+02  6.139313e+00  1.696401e+00
</event>
<event>
    12  9999  1.000000e+00  2.518403e+02  7.908580e-03  1.028593e-01
        2    -1     0     0   101     0  0.0000000000e+00  0.0000000000e+00  3.2872876136e+03  3.2872876136e+03  0.0000000000e+00 0. 9.
       -2    -1     0     0     0   102  0.0000000000e+00  0.0000000000e+00 -1.9437281276e+01  1.9437281276e+01  0.0000000000e+00 0. 9.
        6     2     1     2   101     0  1.5973805046e+02  9.2302613158e+01  1.7722189344e+03  1.7899402428e+03  1.7055821361e+02  2.333996e-14 9.
       -6     2     1     2     0   102 -1.5973805046e+02 -9.2302613158e+01  1.4956313980e+03  1.5167846521e+03  1.7229737409e+02  1.936186e-13 9.
       24     2     3     0     0     0  1.7577820539e+02  6.3839117302e+01  1.2564385593e+03  1.2731038155e+03  8.4747044681e+01  1.248233e-13 9.
        5     1     3     0   101     0 -1.6040154924e+01  2.8463495856e+01  5.1578037513e+02  5.1683642726e+02  4.8000000000e+00 0. 9.
      -24     2     4     0     0     0 -1.0065867184e+02  4.2386762163e+00  5.8538252159e+02  5.9951334520e+02  8.1199876195e+01  2.548347e-14 9.
       -5     1     4     0     0   102 -5.9079378621e+01 -9.6541289375e+01  9.1024887636e+02  9.1727130689e+02  4.8000000000e+00 0. 9.
       -1     1     5     0     0   103  3.9808573198e+01  4.3554389210e-01  5.2099803415e+02  5.2251695923e+02  3.3000000000e-01 0. 9.
        2     1     5     0   103     0  1.3596963219e+02  6.3403573410e+01  7.3544052510e+02  7.5058685631e+02  3.3000000000e-01 0. 9.
        3     1     7     0   104     0 -1.0703896611e+02 -1.5011973615e+01  4.6271992364e+02  4.7517646970e+02  5.0000000000e-01 0. 9.
       -4     1     7     0     0   104  6.3802942718e+00  1.9250649831e+01  1.2266259794e+02  1.2433687550e+02  1.5000000000e+00 0. 9.
#pdf    2   -2  5.057366e-01  2.990351e-03  2.512491e+02  8.931958e-02  1.007265e+00
</event>
<event>
    12  9999  1.000000e+00  2.282337e+02  7.899663e-03  1.040678e-01
       -3    -1     0     0     0   101  0.0000000000e+00  0.0000000000e+00  1.6731041032e+02  1.6731041032e+02  0.0000000000e+00 0. 9.
        3    -1     0     0   102     0  0.0000000000e+00  0.0000000000e+00 -4.6345256018e+02  4.6345256018e+02  0.0000000000e+00 0. 9.
       -6     2     1     2     0   101 -9.3529907841e+01 -1.1722101948e+02 -3.2903037916e+02  4.0080563565e+02  1.7290331429e+02  1.277495e-13 9.
        6     2     1     2   102     0  9.3529907841e+01  1.1722101948e+02  3.2888229308e+01  2.2995733485e+02  1.7120201271e+02  3.352620e-13 9.
      -24     2     3     0     0     0 -1.0246187386e+02 -8.7528355955e+01 -1.4203547474e+02  2.1119664703e+02  7.9185219220e+01  6.537232e-14 9.
       -5     1     3     0     0   101  8.9319660237e+00 -2.9692663520e+01 -1.8699490443e+02  1.8960898862e+02  4.8000000000e+00 0. 9.
       24     2     4     0     0     0  5.6965084164e+01  1.3528006418e+02  6.2012027370e+01  1.7961499641e+02  8.2887507007e+01  6.288774e-14 9.
        5     1     4     0   102     0  3.6564823676e+01 -1.8059044702e+01 -2.9123798062e+01  5.0342338440e+01  4.8000000000e+00 0. 9.
        1     1     5     0   103     0 -2.3017632453e+01 -3.3721091473e+01 -1.2823102276e+00  4.0849438593e+01  3.3000000000e-01 0. 9.
       -2     1     5     0     0   103 -7.9444241411e+01 -5.3807264483e+01 -1.4075316451e+02  1.7034720844e+02  3.3000000000e-01 0. 9.
       -3     1     7     0     0   104  4.4861187810e+01  1.4592204953e+01  2.0023813832e+01  5.1250968162e+01  5.0000000000e-01 0. 9.
        4     1     7     0   104     0  1.2103896354e+01  1.2068785922e+02  4.1988213538e+01  1.2836402824e+02  1.5000000000e+00 0. 9.
#pdf   -3    3  2.574006e-02  7.130039e-02  2.275934e+02  1.825808e-01  6.765868e-02
</event>
<event>
    12  9999  1.000000e+00  1.741063e+02  7.875244e-03  1.075451e-01
       21    -1     0     0   101   102  0.0000000000e+00  0.0000000000e+00  4.6636483392e+02  4.6636483392e+02  0.0000000000e+00 0. 9.
       21    -1     0     0   102   103  0.0000000000e+00  0.0000000000e+00 -7.3714253915e+01  7.3714253915e+01  0.0000000000e+00 0. 9.
        6     2     1     2   101     0 -1.5414165387e+01 -2.0211412638e+01  2.8902454313e+02  3.3733354401e+02  1.7208322315e+02  4.055067e-14 9.
       -6     2     1     2     0   103  1.5414165387e+01  2.0211412638e+01  1.0362603688e+02  2.0274554383e+02  1.7239867263e+02  1.074058e-13 9.
       24     2     3     0     0     0  1.2597887281e+01 -6.9284026410e+01  2.3648844287e+02  2.6002973849e+02  8.2034737836e+01  1.091995e-13 9.
        5     1     3     0   101     0 -2.8012052668e+01  4.9072613771e+01  5.2536100262e+01  7.7303805519e+01  4.8000000000e+00 0. 9.
      -24     2     4     0     0     0 -2.8398532456e+01  7.4060026996e+00 -6.1885870818e+00  8.3725282307e+01  7.8168400045e+01  3.418221e-13 9.
       -5     1     4     0     0   103  4.3812697844e+01  1.2805409939e+01  1.0981462396e+02  1.1902026152e+02  4.8000000000e+00 0. 9.
       -3     1     5     0     0   104 -1.6011180377e+01 -4.9621001302e+01  2.0996009667e+02  2.1633791591e+02  5.0000000000e-01 0. 9.
        2     1     5     0   104     0  2.8609067658e+01 -1.9663025107e+01  2.6528346199e+01  4.3691822584e+01  3.3000000000e-01 0. 9.
        1     1     7     0   105     0  1.7638227445e+01  2.5740185545e+01 -1.2806465898e+01  3.3730975202e+01  3.3000000000e-01 0. 9.
       -2     1     7     0     0   105 -4.6036759902e+01 -1.8334182846e+01  6.6178788164e+00  4.9994307105e+01  3.3000000000e-01 0. 9.
#pdf   21   21  7.174844e-02  1.134065e-02  1.739504e+02  1.269359e+00  7.354500e+00
</event>
<event>
    12  9999  1.000000e+00  2.724109e+02  7.915707e-03  1.019154e-01
       21    -1     0     0   101   102  0.0000000000e+00  0.0000000000e+00  5.5502898644e+02  5.5502898644e+02  0.0000000000e+00 0. 9.
       21    -1     0     0   102   103  0.0000000000e+00  0.0000000000e+00 -1.3979339739e+02  1.3979339739e+02  0.0000000000e+00 0. 9.
        6     2     1     2   101     0  1.9682139156e+02  7.9803750430e+01  1.3509453657e+02  3.0407631562e+02  1.7060062470e+02  7.424645e-14 9.
       -6     2     1     2     0   103 -1.9682139156e+02 -7.9803750430e+01  2.8014105248e+02  3.9074606821e+02  1.7057602932e+02  1.163178e-13 9.
       24     2     3     0     0     0  1.0598671018e+02  1.0414900187e+02  1.2347108832e+02  2.0919863037e+02  8.0241884140e+01  1.577467e-13 9.
        5     1     3     0   101     0  9.0834681377e+01 -2.4345251441e+01  1.1623448249e+01  9.4877685247e+01  4.8000000000e+00 0. 9.
      -24     2     4     0     0     0 -1.6112875927e+02 -4.2081554930e+00  1.4279204397e+02  2.2988448761e+02  8.0480582674e+01  1.747216e-13 9.
       -5     1     4     0     0   103 -3.5692632288e+01 -7.5595594937e+01  1.3734900851e+02  1.6086158059e+02  4.8000000000e+00 0. 9.
      -11     1     5     0     0     0  6.7312458878e+01  4.4601140576e+01  1.1075359201e+02  1.3706417112e+02  5.1100000000e-04 0. 9.
       12     1     5     0     0     0  3.8674251305e+01  5.9547861295e+01  1.2717496312e+01  7.2134459249e+01  0.0000000000e+00 0. 9.
        3     1     7     0   104     0 -5.2803636341e+01  3.2041384616e+01  7.4554919592e+01  9.6817149174e+01  5.0000000000e-01 0. 9.
       -4     1     7     0     0   104 -1.0832512293e+02 -3.6249540109e+01  6.8237124377e+01  1.3306733844e+02  1.5000000000e+00 0. 9.
#pdf   21   21  8.538907e-02  2.150668e-02  2.724032e+02  9.798794e-01  4.296302e+00
</event>
<event>
    12  9999  1.000000e+00  1.861033e+02  7.881241e-03  1.066675e-01
       21    -1     0     0   101   102  0.0000000000e+00  0.0000000000e+00  6.1104216774e+02  6.1104216774e+02  0.0000000000e+00 0. 9.
       21    -1     0     0   102   103  0.0000000000e+00  0.0000000000e+00 -5.7536433603e+01  5.7536433603e+01  0.0000000000e+00 0. 9.
        6     2     1     2   101     0  6.6348502576e+01  3.2334889498e+01  3.1823467134e+02  3.6890835559e+02  1.7138377959e+02  2.232158e-14 9.
       -6     2     1     2     0   103 -6.6348502576e+01 -3.2334889498e+01  2.3527106279e+02  2.9967024575e+02  1.7030007142e+02  4.449409e-14 9.
       24     2     3     0     0     0  2.5286537688e+01  1.6775153998e+01  5.4799497073e+01  1.0179541811e+02  8.0240310868e+01  9.048547e-15 9.
        5     1     3     0   101     0  4.1061964888e+01  1.5559735500e+01  2.6343517427e+02  2.6711293748e+02  4.8000000000e+00 0. 9.
      -24     2     4     0     0     0  1.9331294597e+01 -3.1466783953e+01  6.4445000744e+01  1.0849921048e+02  7.9088956946e+01  4.832137e-14 9.
       -5     1     4     0     0   103 -8.5679797173e+01 -8.6810554582e-01  1.7082606205e+02  1.9117103527e+02  4.8000000000e+00 0. 9.
       -3     1     5     0     0   104 -1.2380189721e+01  3.8009396694e+00 -1.5971304824e+01  2.0568150565e+01  5.0000000000e-01 0. 9.
        4     1     5     0   104     0  3.7666727409e+01  1.2974214329e+01  7.0770801897e+01  8.1227267541e+01  1.5000000000e+00 0. 9.
       11     1     7     0     0     0  2.7555251593e+01  1.6098954590e+01  5.6212171999e+00  3.2404726697e+01  5.1100000000e-04 0. 9.
      -12     1     7     0     0     0 -8.2239569959e+00 -4.7565738543e+01  5.8823783544e+01  7.6094483783e+01  0.0000000000e+00 0. 9.
#pdf   21   21  9.400649e-02  8.851759e-03  1.856065e+02  8.958271e-01  8.896303e+00
</event>
<event>
    12  9999  1.000000e+00  1.721733e+02  7.874240e-03  1.076936e-01
       21    -1     0     0   101   102  0.0000000000e+00  0.0000000000e+00  5.7383736155e+01  5.7383736155e+01  0.0000000000e+00 0. 9.
       21    -1     0     0   103   101  0.0000000000e+00  0.0000000000e+00 -1.1586448756e+03  1.1586448756e+03  0.0000000000e+00 0. 9.
        6     2     1     2   103     0  9.6988194650e+00  1.7942764061e+01 -1.0035859514e+03  1.0182885510e+03  1.7120397589e+02  3.756549e-14 9.
       -6     2     1     2     0   102 -9.6988194650e+00 -1.7942764061e+01 -9.7675188037e+01  1.9774006075e+02  1.7071812846e+02  8.669910e-14 9.
       24     2     3     0     0     0  6.2899665700e+01  3.6268174721e+01 -4.9945297938e+02  5.1100239487e+02  7.9990127585e+01  2.933848e-14 9.
        5     1     3     0   103     0 -5.3200846235e+01 -1.8325410660e+01 -5.0413297205e+02  5.0728615615e+02  4.8000000000e+00 0. 9.
      -24     2     4     0     0     0  2.1839643482e+01 -4.9394299010e+01 -1.1875112553e+02  1.4823138639e+02  7.0384283011e+01  1.171124e-13 9.
       -5     1     4     0     0   102 -3.1538462947e+01  3.1451534949e+01  2.1075937492e+01  4.9508674360e+01  4.8000000000e+00 0. 9.
       -1     1     5     0     0   104  3.2049888178e+01 -3.4866549000e+00 -3.8023189006e+02  3.8159631971e+02  3.3000000000e-01 0. 9.
        2     1     5     0   104     0  3.0849777522e+01  3.9754829621e+01 -1.1922108932e+02  1.2940607517e+02  3.3000000000e-01 0. 9.
        1     1     7     0   105     0  4.0256523279e+01 -3.5570568723e+01 -4.2267640890e+01  6.8355799989e+01  3.3000000000e-01 0. 9.
       -2     1     7     0     0   105 -1.8416879797e+01 -1.3823730287e+01 -7.6483484639e+01  7.9875586402e+01  3.3000000000e-01 0. 9.
#pdf   21   21  8.828267e-03  1.782531e-01  1.719322e+02  8.899620e+00  3.394286e-01
</event>
<event>
    12  9999  1.000000e+00  1.970147e+02  7.886376e-03  1.059285e-01
       21    -1     0     0   101   102  0.0000000000e+00  0.0000000000e+00  6.1890283923e+01  6.1890283923e+01  0.0000000000e+00 0. 9.
       21    -1     0     0   103   101  0.0000000000e+00  0.0000000000e+00 -6.5755661140e+02  6.5755661140e+02  0.0000000000e+00 0. 9.
        6     2     1     2   103     0  9.7350852377e+01  3.4550454768e+01 -2.2520295777e+02  3.0130153398e+02  1.7145063373e+02  3.076935e-13 9.
       -6     2     1     2     0   102 -9.7350852377e+01 -3.4550454768e+01 -3.7046336971e+02  4.1814536135e+02  1.6410823422e+02  1.851715e-13 9.
       24     2     3     0     0     0  1.0039568606e+02  3.9166526442e+01 -8.0543544632e+01  1.5645691054e+02  7.9863581807e+01  2.539849e-14 9.
        5     1     3     0   103     0 -3.0448336878e+00 -4.6160716741e+00 -1.4465941314e+02  1.4484462344e+02  4.8000000000e+00 0. 9.
      -24     2     4     0     0     0 -2.2308721397e+01 -1.3081134693e+01 -1.8234041474e+02  2.1441627822e+02  1.0980673195e+02  1.224967e-13 9.
       -5     1     4     0     0   102 -7.5042130980e+01 -2.1469320075e+01 -1.8812295497e+02  2.0372908313e+02  4.8000000000e+00 0. 9.
      -13     1     5     0     0     0  1.7955276618e+01  4.4488007008e+00  1.6276200441e+01  2.4639595186e+01  1.0566000000e-01  2.649152e+06 9.
       14     1     5     0     0     0  8.2440409446e+01  3.4717725742e+01 -9.6819745073e+01  1.3181731535e+02  0.0000000000e+00 0. 9.
       15     1     7     0     0     0 -5.0066523936e+00  4.8461558799e+01 -7.3810964334e+01  8.8457926692e+01  1.7768200000e+00  5.754498e-02 9.
      -16     1     7     0     0     0 -1.7302069003e+01 -6.1542693492e+01 -1.0852945041e+02  1.2595835153e+02  0.0000000000e+00 0. 9.
#pdf   21   21  9.521582e-03  1.011626e-01  1.939135e+02  8.425145e+00  8.075335e-01
</event>
<event>
    12  9999  1.000000e+00  1.832854e+02  7.879867e-03  1.068671e-01
       21    -1     0     0   101   102  0.0000000000e+00  0.0000000000e+00  1.9593026425e+02  1.9593026425e+02  0.0000000000e+00 0. 9.
       21    -1     0     0   103   101  0.0000000000e+00  0.0000000000e+00 -3.6230811315e+02  3.6230811315e+02  0.0000000000e+00 0. 9.
        6     2     1     2   103     0 -1.2019304753e+01  6.3669523782e+01 -2.8582412471e+02  3.3967977270e+02  1.7172258375e+02  6.122891e-15 9.
       -6     2     1     2     0   102  1.2019304753e+01 -6.3669523782e+01  1.1944627582e+02  2.1855860469e+02  1.7117879230e+02  7.684354e-13 9.
       24     2     3     0     0     0  3.9793579338e+01  4.4123066357e+00 -8.2879020173e+01  1.2195116136e+02  8.0000977277e+01  2.331265e-13 9.
        5     1     3     0   103     0 -5.1812884091e+01  5.9257217146e+01 -2.0294510454e+02  2.1772861135e+02  4.8000000000e+00 0. 9.
      -24     2     4     0     0     0  6.3038553093e+01 -7.8985664091e+01  7.4629505030e+01  1.4877944735e+02  7.9706753949e+01  2.391540e-13 9.
       -5     1     4     0     0   102 -5.1019248340e+01  1.5316140309e+01  4.4816770791e+01  6.9779157342e+01  4.8000000000e+00 0. 9.
      -11     1     5     0     0     0  4.2569451396e+00  3.7914251128e+00  1.5943251549e+01  1.6931738143e+01  5.1100000000e-04 0. 9.
       12     1     5     0     0     0  3.5536634199e+01  6.2088152281e-01 -9.8822271722e+01  1.0501942321e+02  0.0000000000e+00 0. 9.
        1     1     7     0   104     0  2.4882927811e+01 -4.9779679079e+01 -4.8916818107e+00  5.5867826131e+01  3.3000000000e-01 0. 9.
       -2     1     7     0     0   104  3.8155625283e+01 -2.9205985012e+01  7.9521186841e+01  9.2911621220e+01  3.3000000000e-01 0. 9.
#pdf   21   21  3.014312e-02  5.573971e-02  1.830313e+02  3.188358e+00  1.695990e+00
</event>
<event>
    12  9999  1.000000e+00  1.847984e+02  7.880607e-03  1.067594e-01
       21    -1     0     0   101   102  0.0000000000e+00  0.0000000000e+00  1.0206993595e+02  1.0206993595e+02  0.0000000000e+00 0. 9.
       21    -1     0     0   103   101  0.0000000000e+00  0.0000000000e+00 -6.0778250394e+02  6.0778250394e+02  0.0000000000e+00 0. 9.
        6     2     1     2   103     0  1.6055963583e+01 -6.6816428612e+01 -4.9051670782e+02  5.2403250836e+02  1.7111750369e+02  2.183602e-13 9.
       -6     2     1     2     0   102 -1.6055963583e+01  6.6816428612e+01 -1.5195860174e+01  1.8581993153e+02  1.7197646259e+02  1.705882e-13 9.
       24     2     3     0     0     0 -5.7437946504e+01 -2.5868188707e+01 -3.1345828844e+02  3.2794365849e+02  7.2956587535e+01  7.710651e-14 9.
        5     1     3     0   103     0  7.3493910087e+01 -4.0948239904e+01 -1.7705841938e+02  1.9608884987e+02  4.8000000000e+00 0. 9.
      -24     2     4     0     0     0  3.0678739875e+01  8.3539559708e+01 -4.1434873569e+01  1.2946994089e+02  8.4413113491e+01  2.169427e-13 9.
       -5     1     4     0     0   102 -4.6734703458e+01 -1.6723131096e+01  2.6239013394e+01  5.6349990638e+01  4.8000000000e+00 0. 9.
       -1     1     5     0     0   104 -5.2030520150e+01 -4.8415004725e+01 -2.0312777480e+02  2.1520267077e+02  3.3000000000e-01 0. 9.
        2     1     5     0   104     0 -5.4074263542e+00  2.2546816018e+01 -1.1033051364e+02  1.1274098772e+02  3.3000000000e-01 0. 9.
        3     1     7     0   105     0  8.4133304993e+00  1.7208801590e+00  2.1961492640e+01  2.3586070415e+01  5.0000000000e-01 0. 9.
       -4     1     7     0     0   105  2.2265409376e+01  8.1818679549e+01 -6.3396366209e+01  1.0588387047e+02  1.5000000000e+00 0. 9.
#pdf   21   21  1.570307e-02  9.350500e-02  1.844002e+02  5.667845e+00  9.028090e-01
</event>
<event>
    12  9999  1.000000e+00  2.353179e+02  7.902430e-03  1.036894e-01
       21    -1     0     0   101   102  0.0000000000e+00  0.0000000000e+00  2.3576850276e+03  2.3576850276e+03  0.0000000000e+00 0. 9.
       21    -1     0     0   102   103  0.0000000000e+00  0.0000000000e+00 -1.2136992832e+02  1.2136992832e+02  0.0000000000e+00 0. 9.
        6     2     1     2   101     0 -8.7486043764e+01  1.3733087460e+02  2.2306220676e+03  2.2429221373e+03  1.6885297796e+02  1.515680e-13 9.
       -6     2     1     2     0   103  8.7486043764e+01 -1.3733087460e+02  5.6930316684e+00  2.3613281869e+02  1.7091729134e+02  2.950952e-14 9.
       24     2     3     0     0     0 -9.7034484763e+01  7.8404046221e+01  1.9663583818e+03  1.9719574173e+03  8.0547402856e+01  7.685407e-13 9.
        5     1     3     0   101     0  9.5484409987e+00  5.8926828380e+01  2.6426368584e+02  2.7096472000e+02  4.8000000000e+00 0. 9.
      -24     2     4     0     0     0 -7.9998466245e-01 -6.0815272912e+01  4.8488112451e+01  1.1161969064e+02  8.0054487035e+01  1.658484e-15 9.
       -5     1     4     0     0   103  8.8286028427e+01 -7.6515601689e+01 -4.2795080782e+01  1.2451312805e+02  4.8000000000e+00 0. 9.
       -3     1     5     0     0   104 -7.4312106769e+01  5.1298634602e+01  8.0313687717e+02  8.0819733518e+02  5.0000000000e-01 0. 9.
        4     1     5     0   104     0 -2.2722377995e+01  2.7105411619e+01  1.1632215046e+03  1.1637600821e+03  1.5000000000e+00 0. 9.
        3     1     7     0   105     0  1.1125152101e+01  1.7395161040e+01  4.6969269910e+00  2.1181873384e+01  5.0000000000e-01 0. 9.
       -4     1     7     0     0   105 -1.1925136763e+01 -7.8210433953e+01  4.3791185460e+01  9.0437817255e+01  1.5000000000e+00 0. 9.
#pdf   21   21  3.627208e-01  1.867230e-02  2.345739e+02  5.029490e-02  4.881343e+00
</event>
<event>
    12  9999  1.000000e+00  2.191879e+02  7.896006e-03  1.045727e-01
       21    -1     0     0   101   102  0.0000000000e+00  0.0000000000e+00  2.7757040562e+02  2.7757040562e+02  0.0000000000e+00 0. 9.
       21    -1     0     0   102   103  0.0000000000e+00  0.0000000000e+00 -1.9323690595e+02  1.9323690595e+02  0.0000000000e+00 0. 9.
        6     2     1     2   101     0  9.7421170824e+01  9.5873154402e+01  1.1869026921e+02  2.5231589850e+02  1.7576514550e+02  8.504961e-14 9.
       -6     2     1     2     0   103 -9.7421170824e+01 -9.5873154402e+01 -3.4356769535e+01  2.1849141307e+02  1.6695976675e+02  2.355984e-14 9.
       24     2     3     0     0     0  8.3773663769e+01  9.6076328201e+00  1.9824348325e+01  1.2031019796e+02  8.3493745861e+01  1.401907e-13 9.
        5     1     3     0   101     0  1.3647507055e+01  8.6265521582e+01  9.8865920880e+01  1.3200570054e+02  4.8000000000e+00 0. 9.
      -24     2     4     0     0     0 -3.0900421125e+01 -1.9053844627e+00 -5.2995484818e+01  1.0176355163e+02  8.1171623824e+01  5.231933e-14 9.
       -5     1     4     0     0   103 -6.6520749699e+01 -9.3967769939e+01  1.8638715283e+01  1.1672786144e+02  4.8000000000e+00 0. 9.
      -15     1     5     0     0     0 -6.4391728727e+00  9.3633407634e-01 -2.0156080639e+01  2.1254748760e+01  1.7768200000e+00  1.201102e-01 9.
       16     1     5     0     0     0  9.0212836641e+01  8.6712987438e+00  3.9980428965e+01  9.9055449204e+01  0.0000000000e+00 0. 9.
        3     1     7     0   104     0 -4.6956437306e+01  1.7215567384e+01 -8.5185454665e+00  5.0735573138e+01  5.0000000000e-01 0. 9.
       -4     1     7     0     0   104  1.6056016181e+01 -1.9120951847e+01 -4.4476939351e+01  5.1027978494e+01  1.5000000000e+00 0. 9.
#pdf   21   21  4.270314e-02  2.972875e-02  2.157733e+02  2.238388e+00  3.210721e+00
</event>
<event>
    12  9999  1.000000e+00  2.357798e+02  7.902608e-03  1.036652e-01
       21    -1     0     0   101   102  0.0000000000e+00  0.0000000000e+00  1.1490165302e+03  1.1490165302e+03  0.0000000000e+00 0. 9.
       21    -1     0     0   103   101  0.0000000000e+00  0.0000000000e+00 -7.0162517588e+01  7.0162517588e+01  0.0000000000e+00 0. 9.
        6     2     1     2   103     0  1.5754828446e+02 -4.2784079840e+01  1.9837040339e+02  3.0743815749e+02  1.6886522530e+02  3.416663e-13 9.
       -6     2     1     2     0   102 -1.5754828446e+02  4.2784079840e+01  8.8048360923e+02  9.1174089032e+02  1.7137130892e+02  5.403573e-14 9.
       24     2     3     0     0     0  6.2887583904e+01 -3.3351965072e+00  2.3033106694e+01  1.0425580038e+02  7.9829669700e+01  6.172865e-14 9.
        5     1     3     0   103     0  9.4660700552e+01 -3.9448883333e+01  1.7533729670e+02  2.0318235710e+02  4.8000000000e+00 0. 9.
      -24     2     4     0     0     0 -2.2012763364e+01  3.5123292766e+01  2.2999072645e+02  2.4721655239e+02  8.0635488957e+01  3.564411e-14 9.
       -5     1     4     0     0   102 -1.3553552109e+02  7.6607870744e+00  6.5049288278e+02  6.6452433792e+02  4.8000000000e+00 0. 9.
       -3     1     5     0     0   104 -1.8423293297e+01  6.7114025202e+00  2.4430634704e+00  1.9765606968e+01  5.0000000000e-01 0. 9.
        4     1     5     0   104     0  8.1310877201e+01 -1.0046599027e+01  2.0590043223e+01  8.4490193414e+01  1.5000000000e+00 0. 9.
        3     1     7     0   105     0 -4.7342654010e+01  2.6870987561e+01  1.9904761623e+02  2.0635789393e+02  5.0000000000e-01 0. 9.
       -4     1     7     0     0   105  2.5329890645e+01  8.2523052050e+00  3.0943110220e+01  4.0858658463e+01  1.5000000000e+00 0. 9.
#pdf   21   21  1.767718e-01  1.079423e-02  2.348774e+02  3.279922e-01  7.658669e+00
</event>
<event>
    12  9999  1.000000e+00  1.855555e+02  7.880976e-03  1.067060e-01
        1    -1     0     0   101     0  0.0000000000e+00  0.0000000000e+00  5.3566958218e+02  5.3566958218e+02  0.0000000000e+00 0. 9.
       -1    -1     0     0     0   102  0.0000000000e+00  0.0000000000e+00 -1.1855694030e+02  1.1855694030e+02  0.0000000000e+00 0. 9.
        6     2     1     2   101     0 -2.7618935227e+01 -4.1053059798e+01 -8.0653576521e+00  1.9312166006e+02  1.8650138414e+02  1.075432e-14 9.
       -6     2     1     2     0   102  2.7618935227e+01  4.1053059798e+01  4.2517799953e+02  4.6110486243e+02  1.7144446204e+02  1.096350e-13 9.
       24     2     3     0     0     0  4.2074278238e+01  2.0668458885e+01 -2.7984047976e+01  9.7798608827e+01  8.1142041295e+01  9.757618e-15 9.
        5     1     3     0   101     0 -6.9693213465e+01 -6.1721518683e+01  1.9918690324e+01  9.5323051230e+01  4.8000000000e+00 0. 9.
      -24     2     4     0     0     0  1.0782968005e+01  7.8181685135e+01  1.7922041662e+02  2.1174536851e+02  8.0544987829e+01  2.040196e-13 9.
       -5     1     4     0     0   102  1.6835967222e+01 -3.7128625337e+01  2.4595758291e+02  2.4935949391e+02  4.8000000000e+00 0. 9.
       -3     1     5     0     0   103  3.3173274308e+01  5.1675888045e+01 -1.8842456579e+01  6.4235128267e+01  5.0000000000e-01 0. 9.
        4     1     5     0   103     0  8.9010039298e+00 -3.1007429160e+01 -9.1415913969e+00  3.3563480560e+01  1.5000000000e+00 0. 9.
        1     1     7     0   104     0  4.2254543196e+01  6.0425309818e+01  1.4106489158e+02  1.5917310396e+02  3.3000000000e-01 0. 9.
       -4     1     7     0     0   104 -3.1471575191e+01  1.7756375317e+01  3.8155525037e+01  5.2572264554e+01  1.5000000000e+00 0. 9.
#pdf    1   -1  8.241070e-02  1.823953e-02  1.784415e+02  3.760491e-01  3.857590e-01
</event>
<event>
    12  9999  1.000000e+00  1.745818e+02  7.875489e-03  1.075089e-01
       21    -1     0     0   101   102  0.0000000000e+00  0.0000000000e+00  3.4519658988e+02  3.4519658988e+02  0.0000000000e+00 0. 9.
       21    -1     0     0   102   103  0.0000000000e+00  0.0000000000e+00 -1.9399528901e+02  1.9399528901e+02  0.0000000000e+00 0. 9.
        6     2     1     2   101     0 -2.9782497919e-01 -3.3639838102e+01  2.7464504562e+02  3.2555175450e+02  1.7152934550e+02  4.261413e-14 9.
       -6     2     1     2     0   103  2.9782497919e-01  3.3639838102e+01 -1.2344374474e+02  2.1364012439e+02  1.7109066961e+02  1.602319e-13 9.
       24     2     3     0     0     0  4.3101613971e+01 -3.0272214919e+01  2.6351284953e+02  2.8036527447e+02  7.9946914525e+01  6.361935e-15 9.
        5     1     3     0   101     0 -4.3399438951e+01 -3.3676231829e+00  1.1132196089e+01  4.5186480023e+01  4.8000000000e+00 0. 9.
      -24     2     4     0     0     0  5.7264008546e+01  5.5550100363e+01 -6.7550975185e+01  1.3074110539e+02  7.8518291281e+01  1.058192e-14 9.
       -5     1     4     0     0   103 -5.6966183567e+01 -2.1910262261e+01 -5.5892769554e+01  8.2899018999e+01  4.8000000000e+00 0. 9.
       -3     1     5     0     0   104 -1.1044332937e+01  1.9282389713e+01  6.6685008882e+01  7.0291736731e+01  5.0000000000e-01 0. 9.
        4     1     5     0   104     0  5.4145946909e+01 -4.9554604633e+01  1.9682784064e+02  2.1007353774e+02  1.5000000000e+00 0. 9.
        3     1     7     0   105     0  4.3816613663e+01 -8.7366383235e+00 -3.8208250559e+01  5.8790687127e+01  5.0000000000e-01 0. 9.
       -4     1     7     0     0   105  1.3447394883e+01  6.4286738687e+01 -2.9342724626e+01  7.1950418265e+01  1.5000000000e+00 0. 9.
#pdf   21   21  5.310717e-02  2.984543e-02  1.743667e+02  1.794949e+00  3.223628e+00
</event>
<event>
    12  9999  1.000000e+00  2.186670e+02  7.895791e-03  1.046026e-01
       21    -1     0     0   101   102  0.0000000000e+00  0.0000000000e+00  7.2571285642e+02  7.2571285642e+02  0.0000000000e+00 0. 9.
       21    -1     0     0   102   103  0.0000000000e+00  0.0000000000e+00 -6.7851952568e+01  6.7851952568e+01  0.0000000000e+00 0. 9.
        6     2     1     2   101     0  2.3350009814e+01 -1.3641025935e+02  2.6378856152e+02  3.4365341806e+02  1.7134843080e+02  2.171096e-13 9.
       -6     2     1     2     0   103 -2.3350009814e+01  1.3641025935e+02  3.9407234233e+02  4.4991139093e+02  1.6725509524e+02  1.730005e-14 9.
       24     2     3     0     0     0 -4.1658887548e+01 -1.2363519810e+02  1.9843489447e+02  2.5046811491e+02  7.9603669018e+01  2.217165e-14 9.
        5     1     3     0   101     0  6.5008897362e+01 -1.2775061251e+01  6.5353667057e+01  9.3185303154e+01  4.8000000000e+00 0. 9.
      -24     2     4     0     0     0 -1.1968706026e+01  5.7872374125e+01  8.6479088691e+01  1.3220967048e+02  8.0674051448e+01  2.292149e-14 9.
       -5     1     4     0     0   103 -1.1381303787e+01  7.8537885228e+01  3.0759325364e+02  3.1770172045e+02  4.8000000000e+00 0. 9.
       -3     1     5     0     0   104  1.0822731854e+01 -3.2409663643e+01  1.1714904301e+01  3.6124877924e+01  5.0000000000e-01 0. 9.
        4     1     5     0   104     0 -5.2481619403e+01 -9.1225534459e+01  1.8671999017e+02  2.1434323698e+02  1.5000000000e+00 0. 9.
       15     1     7     0     0     0 -4.4337911768e+01  4.1192091462e+01  6.9062753693e+01  9.1844759545e+01  1.7768200000e+00  2.058587e-02 9.
      -16     1     7     0     0     0  3.2369205742e+01  1.6680282664e+01  1.7416334998e+01  4.0364910936e+01  0.0000000000e+00 0. 9.
#pdf   21   21  1.116481e-01  1.043876e-02  2.170881e+02  6.942588e-01  7.858475e+00
</event>
<event>
    12  9999  1.000000e+00  2.399501e+02  7.904196e-03  1.034496e-01
       21    -1     0     0   101   102  0.0000000000e+00  0.0000000000e+00  3.1315665277e+01  3.1315665277e+01  0.0000000000e+00 0. 9.
       21    -1     0     0   103   101  0.0000000000e+00  0.0000000000e+00 -1.8472907724e+03  1.8472907724e+03  0.0000000000e+00 0. 9.
        6     2     1     2   103     0  5.3877834736e+01 -1.5879715441e+02 -9.7647473732e+02  1.0057843415e+03  1.7314696530e+02  3.081071e-13 9.
       -6     2     1     2     0   102 -5.3877834736e+01  1.5879715441e+02 -8.3950036976e+02  8.7282209617e+02  1.7011226705e+02  1.663157e-13 9.
       24     2     3     0     0     0  6.1933495611e+01 -1.2728724631e+02 -4.4576720920e+02  4.7405951753e+02  7.7370668982e+01  2.036275e-14 9.
        5     1     3     0   103     0 -8.0556608750e+00 -3.1509908105e+01 -5.3070752813e+02  5.3172482394e+02  4.8000000000e+00 0. 9.
      -24     2     4     0     0     0 -1.4654859853e+00  6.7251328010e+01 -2.1486521165e+02  2.3932401931e+02  8.1142086938e+01  1.174756e-13 9.
       -5     1     4     0     0   102 -5.2412348751e+01  9.1545826401e+01 -6.2463515812e+02  6.3349807686e+02  4.8000000000e+00 0. 9.
       -1     1     5     0     0   104  3.4391249105e+01 -1.2838266247e+02 -3.8600643256e+02  4.0824740161e+02  3.3000000000e-01 0. 9.
        2     1     5     0   104     0  2.7542246506e+01  1.0954161613e+00 -5.9760776632e+01  6.5812115928e+01  3.3000000000e-01 0. 9.
       13     1     7     0     0     0  2.9108024852e+01  1.5577836226e+01 -1.3742411102e+02  1.4133415563e+02  1.0566000000e-01  7.718351e+05 9.
      -14     1     7     0     0     0 -3.0573510838e+01  5.1673491784e+01 -7.7441100624e+01  9.7989863680e+01  0.0000000000e+00 0. 9.
#pdf   21   21  4.817795e-03  2.841986e-01  2.388672e+02  1.391041e+01  1.136502e-01
</event>
<event>
    12  9999  1.000000e+00  1.741612e+02  7.875272e-03  1.075409e-01
       21    -1     0     0   101   102  0.0000000000e+00  0.0000000000e+00  2.1756823045e+02  2.1756823045e+02  0.0000000000e+00 0. 9.
       21    -1     0     0   102   103  0.0000000000e+00  0.0000000000e+00 -1.8477754803e+02  1.8477754803e+02  0.0000000000e+00 0. 9.
        6     2     1     2   101     0  1.2088841888e+01 -3.3179881591e+01  1.1608479022e+02  2.0944588480e+02  1.7071864427e+02  2.008227e-14 9.
       -6     2     1     2     0   103 -1.2088841888e+01  3.3179881591e+01 -8.3294107803e+01  1.9289989368e+02  1.7036847110e+02  3.168596e-14 9.
       24     2     3     0     0     0 -5.3789856811e+01 -2.3101180322e+01  3.0055315246e+01  1.0051611970e+02  7.5981281357e+01  1.558256e-13 9.
        5     1     3     0   101     0  6.5878698700e+01 -1.0078701270e+01  8.6029474973e+01  1.0892976510e+02  4.8000000000e+00 0. 9.
      -24     2     4     0     0     0 -1.2506569291e+01 -2.7091688149e+01 -9.9011697242e+01  1.3042654550e+02  7.9482034058e+01  4.669000e-14 9.
       -5     1     4     0     0   103  4.1772740235e-01  6.0271569740e+01  1.5717589439e+01  6.2473348180e+01  4.8000000000e+00 0. 9.
       -3     1     5     0     0   104 -6.0672030311e+00  8.2660486650e+00 -2.1334076148e+01  2.3675542618e+01  5.0000000000e-01 0. 9.
        4     1     5     0   104     0 -4.7722653780e+01 -3.1367228987e+01  5.1389391395e+01  7.6840577080e+01  1.5000000000e+00 0. 9.
        3     1     7     0   105     0  2.9221825675e+01  5.4466032612e+00 -5.0621864609e+01  5.8706079407e+01  5.0000000000e-01 0. 9.
       -4     1     7     0     0   105 -4.1728394966e+01 -3.2538291410e+01 -4.8389832633e+01  7.1720466092e+01  1.5000000000e+00 0. 9.
#pdf   21   21  3.347204e-02  2.842732e-02  1.739898e+02  2.889143e+00  3.374402e+00
</event>
<event>
    12  9999  1.000000e+00  1.746475e+02  7.875523e-03  1.075039e-01
       21    -1     0     0   101   102  0.0000000000e+00  0.0000000000e+00  1.0304091916e+02  1.0304091916e+02  0.0000000000e+00 0. 9.
       21    -1     0     0   103   101  0.0000000000e+00  0.0000000000e+00 -7.3796231926e+02  7.3796231926e+02  0.0000000000e+00 0. 9.
        6     2     1     2   103     0  2.5932097003e+01  2.2703097179e+01 -6.4300431885e+02  6.6634736489e+02  1.7139531023e+02  2.294846e-13 9.
       -6     2     1     2     0   102 -2.5932097003e+01 -2.2703097179e+01  8.0829187534e+00  1.7465587353e+02  1.7103051279e+02  2.536507e-13 9.
       24     2     3     0     0     0  7.2176552976e+01  4.2102187959e+01 -3.4454740523e+02  3.6366858514e+02  8.0993063480e+01  2.365948e-15 9.
        5     1     3     0   103     0 -4.6244455972e+01 -1.9399090780e+01 -2.9845691361e+02  3.0267877975e+02  4.8000000000e+00 0. 9.
      -24     2     4     0     0     0  1.9191108478e+01  4.4791327352e+01  1.8140872191e+01  9.2705867775e+01  7.6751058791e+01  4.732363e-14 9.
       -5     1     4     0     0   102 -4.5123205481e+01 -6.7494424531e+01 -1.0057953437e+01  8.1950005753e+01  4.8000000000e+00 0. 9.
      -15     1     5     0     0     0 -9.6491964829e+00 -1.1774942438e+01 -2.3936207560e+01  2.8422796904e+01  1.7768200000e+00  3.671815e-02 9.
       16     1     5     0     0     0  8.1825749458e+01  5.3877130396e+01 -3.2061119767e+02  3.3524578823e+02  0.0000000000e+00 0. 9.
        1     1     7     0   104     0 -7.6617243423e+00  5.5804535061e+01  2.6851479970e+01  6.2401594770e+01  3.3000000000e-01 0. 9.
       -2     1     7     0     0   104  2.6852832820e+01 -1.1013207709e+01 -8.7106077793e+00  3.0304273006e+01  3.3000000000e-01 0. 9.
#pdf   21   21  1.585245e-02  1.135327e-01  1.744687e+02  5.624915e+00  6.947389e-01
</event>
<event>
    12  9999  1.000000e+00  1.716148e+02  7.873948e-03  1.077369e-01
        1    -1     0     0   101     0  0.0000000000e+00  0.0000000000e+00  2.5006745542e+02  2.5006745542e+02  0.0000000000e+00 0. 9.
       -1    -1     0     0     0   102  0.0000000000e+00  0.0000000000e+00 -6.8113353848e+02  6.8113353848e+02  0.0000000000e+00 0. 9.
        6     2     1     2   101     0  1.5936174145e+01 -1.1096604839e+01  2.0792372415e+02  2.6954447557e+02  1.7042550560e+02  9.201107e-14 9.
       -6     2     1     2     0   102 -1.5936174145e+01  1.1096604839e+01 -6.3898980720e+02  6.6165651833e+02  1.7059976044e+02  5.200914e-14 9.
       24     2     3     0     0     0 -3.3721523136e+01  1.8718547435e+01  5.4132580792e+01  1.0513770570e+02  8.1462112147e+01  3.708525e-14 9.
        5     1     3     0   101     0  4.9657697281e+01 -2.9815152274e+01  1.5379114335e+02  1.6440676987e+02  4.8000000000e+00 0. 9.
      -24     2     4     0     0     0 -6.3140508005e+01 -8.0448054670e+00 -5.4208036131e+02  5.5207037219e+02  8.2940551531e+01  1.446226e-16 9.
       -5     1     4     0     0   102  4.7204333860e+01  1.9141410306e+01 -9.6909445894e+01  1.0958614615e+02  4.8000000000e+00 0. 9.
      -15     1     5     0     0     0 -1.3613348226e+01  1.2721302761e+01  7.3946097898e+01  7.6278026178e+01  1.7768200000e+00  4.495446e-02 9.
       16     1     5     0     0     0 -2.0108174910e+01  5.9972446741e+00 -1.9813517106e+01  2.8859679520e+01  0.0000000000e+00 0. 9.
        3     1     7     0   103     0 -4.0323509320e+01  3.2350809534e+01 -1.8868668276e+02  1.9564118823e+02  5.0000000000e-01 0. 9.
       -4     1     7     0     0   103 -2.2816998684e+01 -4.0395615001e+01 -3.5339367855e+02  3.5642918396e+02  1.5000000000e+00 0. 9.
#pdf    1   -1  3.847192e-02  1.047898e-01  1.715283e+02  4.624279e-01  8.975877e-02
</event>
<event>
    12  9999  1.000000e+00  1.899650e+02  7.883091e-03  1.063999e-01
       21    -1     0     0   101   102  0.0000000000e+00  0.0000000000e+00  5.8792407718e+02  5.8792407718e+02  0.0000000000e+00 0. 9.
       21    -1     0     0   102   103  0.0000000000e+00  0.0000000000e+00 -1.1107019655e+02  1.1107019655e+02  0.0000000000e+00 0. 9.
        6     2     1     2   101     0  5.5938807838e+01  5.9093176578e+01  4.7182671879e+02  5.0843697498e+02  1.7107469487e+02  3.167230e-13 9.
       -6     2     1     2     0   103 -5.5938807838e+01 -5.9093176578e+01  5.0271618420e+00  1.9055729874e+02  1.7223721435e+02  1.188742e-14 9.
       24     2     3     0     0     0  6.9277145612e+01 -1.7267399034e+01  3.1828702658e+02  3.3637208651e+02  8.2110068317e+01  1.107312e-14 9.
        5     1     3     0   101     0 -1.3338337774e+01  7.6360575612e+01  1.5353969221e+02  1.7206488848e+02  4.8000000000e+00 0. 9.
      -24     2     4     0     0     0  1.6702979499e+00 -6.0022428492e+01  5.5104588513e+01  1.1406899087e+02  7.9810633288e+01  8.587434e-14 9.
       -5     1     4     0     0   103 -5.7609105788e+01  9.2925191455e-01 -5.0077426671e+01  7.6488307870e+01  4.8000000000e+00 0. 9.
      -15     1     5     0     0     0 -3.8540449062e+00 -1.1542486712e+01  2.9925064323e+00  1.2656810250e+01  1.7768200000e+00  9.008019e-02 9.
       16     1     5     0     0     0  7.3131190518e+01 -5.7249123216e+00  3.1529452014e+02  3.2371527626e+02  0.0000000000e+00 0. 9.
       11     1     7     0     0     0 -1.6364723572e+01  1.9659239566e+00 -1.2427956343e+01  2.0642750149e+01  5.1100000000e-04 0. 9.
      -12     1     7     0     0     0  1.8035021522e+01 -6.1988352449e+01  6.7532544857e+01  9.3426240722e+01  0.0000000000e+00 0. 9.
#pdf   21   21  9.044986e-02  1.708772e-02  1.894405e+02  9.409012e-01  5.281690e+00
</event>
<event>
    12  9999  1.000000e+00  2.176354e+02  7.895363e-03  1.046620e-01
       21    -1     0     0   101   102  0.0000000000e+00  0.0000000000e+00  3.6537427871e+01  3.6537427871e+01  0.0000000000e+00 0. 9.
       21    -1     0     0   102   103  0.0000000000e+00  0.0000000000e+00 -1.3492556963e+03  1.3492556963e+03  0.0000000000e+00 0. 9.
        6     2     1     2   101     0  8.8959516269e+01 -1.0172803262e+02 -5.2037008447e+02  5.6421002508e+02  1.7113018270e+02  1.751109e-13 9.
       -6     2     1     2     0   103 -8.8959516269e+01  1.0172803262e+02 -7.9234818398e+02  8.2158309911e+02  1.7006103593e+02  9.589421e-14 9.
       24     2     3     0     0     0  3.0888582933e+01 -6.3533087679e+00 -1.1577638977e+02  1.4446287615e+02  8.0441786823e+01  1.687889e-13 9.
        5     1     3     0   101     0  5.8070933336e+01 -9.5374723852e+01 -4.0459369470e+02  4.1974714893e+02  4.8000000000e+00 0. 9.
      -24     2     4     0     0     0 -1.1546416276e+02  3.3885746316e+01 -5.4649140734e+02  5.6511932640e+02  7.8909936556e+01  6.769027e-14 9.
       -5     1     4     0     0   103  2.6504646492e+01  6.7842286304e+01 -2.4585677663e+02  2.5646377271e+02  4.8000000000e+00 0. 9.
       -1     1     5     0     0   104 -1.5333778923e+01 -1.0768831556e+01  1.0267368059e+00  1.8768473502e+01  3.3000000000e-01 0. 9.
        2     1     5     0   104     0  4.6222361856e+01  4.4155227882e+00 -1.1680312658e+02  1.2569440264e+02  3.3000000000e-01 0. 9.
        3     1     7     0   105     0 -1.6936391098e+01  3.4841777279e+01 -2.4192091523e+02  2.4500361224e+02  5.0000000000e-01 0. 9.
       -4     1     7     0     0   105 -9.8527771663e+01 -9.5603096291e-01 -3.0457049212e+02  3.2011571416e+02  1.5000000000e+00 0. 9.
#pdf   21   21  5.621143e-03  2.075778e-01  2.172168e+02  1.243878e+01  2.441147e-01
</event>
<event>
    12  9999  1.000000e+00  1.883071e+02  7.882301e-03  1.065139e-01
       21    -1     0     0   101   102  0.0000000000e+00  0.0000000000e+00  1.1932872640e+03  1.1932872640e+03  0.0000000000e+00 0. 9.
       21    -1     0     0   102   103  0.0000000000e+00  0.0000000000e+00 -3.1710597073e+01  3.1710597073e+01  0.0000000000e+00 0. 9.
        6     2     1     2   101     0  2.1948941533e+01 -7.6609191919e+01  4.2512845793e+02  4.6467898263e+02  1.6982822744e+02  1.609752e-13 9.
       -6     2     1     2     0   103 -2.1948941533e+01  7.6609191919e+01  7.3644820900e+02  7.6031887844e+02  1.7140043191e+02  1.678441e-13 9.
       24     2     3     0     0     0 -3.6364584900e+01 -9.1187958088e+01  2.7386944993e+02  3.0184368151e+02  8.0420804092e+01  1.078302e-13 9.
        5     1     3     0   101     0  5.8313526433e+01  1.4578766170e+01  1.5125900800e+02  1.6283530112e+02  4.8000000000e+00 0. 9.
      -24     2     4     0     0     0  2.1711246910e+01  5.5453632758e+00  5.4507695306e+02  5.5150729496e+02  8.0927636461e+01  2.059106e-14 9.
       -5     1     4     0     0   103 -4.3660188443e+01  7.1063828643e+01  1.9137125594e+02  2.0881158348e+02  4.8000000000e+00 0. 9.
       -1     1     5     0     0   104  3.8824653581e+00 -7.8366928234e+01  2.1877186699e+02  2.3241705545e+02  3.3000000000e-01 0. 9.
        2     1     5     0   104     0 -4.0247050258e+01 -1.2821029854e+01  5.5097582942e+01  6.9426626067e+01  3.3000000000e-01 0. 9.
        3     1     7     0   105     0  2.2182940342e+01  3.7274604968e+01  4.2813938707e+02  4.3033134185e+02  5.0000000000e-01 0. 9.
       -4     1     7     0     0   105 -4.7169343177e-01 -3.1729241692e+01  1.1693756599e+02  1.2117595312e+02  1.5000000000e+00 0. 9.
#pdf   21   21  1.835827e-01  4.878553e-03  1.875962e+02  3.173183e-01  1.366642e+01
</event>
<event>
    12  9999  1.000000e+00  1.990176e+02  7.887288e-03  1.057984e-01
       21    -1     0     0   101   102  0.0000000000e+00  0.0000000000e+00  1.5732117295e+02  1.5732117295e+02  0.0000000000e+00 0. 9.
       21    -1     0     0   103   101  0.0000000000e+00  0.0000000000e+00 -2.5226905874e+02  2.5226905874e+02  0.0000000000e+00 0. 9.
        6     2     1     2   103     0  2.7856792918e+01  9.7769931588e+01 -5.6704805290e+01  2.0729257651e+02  1.7152205951e+02  4.062379e-13 9.
       -6     2     1     2     0   102 -2.7856792918e+01 -9.7769931588e+01 -3.8243080502e+01  2.0229765517e+02  1.7066589480e+02  8.264608e-14 9.
       24     2     3     0     0     0  5.1050236264e+01  3.2906200689e+01  2.2545040753e+01  1.0217922104e+02  7.9014996576e+01  9.718899e-14 9.
        5     1     3     0   103     0 -2.3193443347e+01  6.4863730899e+01 -7.9249846043e+01  1.0511335547e+02  4.8000000000e+00 0. 9.
      -24     2     4     0     0     0 -5.0341003095e+01 -1.2862050725e+02 -4.1084046027e+01  1.6371775352e+02  7.7705550008e+01  1.359891e-13 9.
       -5     1     4     0     0   102  2.2484210178e+01  3.0850575666e+01  2.8409655255e+00  3.8579901651e+01  4.8000000000e+00 0. 9.
       -1     1     5     0     0   104  2.9669377460e+01 -1.1870859992e+01  3.8519389653e+01  5.0050390159e+01  3.3000000000e-01 0. 9.
        2     1     5     0   104     0  2.1380858804e+01  4.4777060682e+01 -1.5974348900e+01  5.2128830883e+01  3.3000000000e-01 0. 9.
        3     1     7     0   105     0  3.9815828556e-01  2.5807955434e+00  1.2799481665e+01  1.3072710758e+01  5.0000000000e-01 0. 9.
       -4     1     7     0     0   105 -5.0739161381e+01 -1.3120130280e+02 -5.3883527693e+01  1.5064504277e+02  1.5000000000e+00 0. 9.
#pdf   21   21  2.420326e-02  3.881062e-02  1.986500e+02  3.896335e+00  2.480721e+00
</event>
<event>
    12  9999  1.000000e+00  1.745723e+02  7.875484e-03  1.075096e-01
       21    -1     0     0   101   102  0.0000000000e+00  0.0000000000e+00  5.2450571573e+02  5.2450571573e+02  0.0000000000e+00 0. 9.
       21    -1     0     0   102   103  0.0000000000e+00  0.0000000000e+00 -5.9089887214e+01  5.9089887214e+01  0.0000000000e+00 0. 9.
        6     2     1     2   101     0 -3.1466800656e+01 -1.3928045767e+01  2.7084266056e+02  3.2240777006e+02  1.7148432410e+02  1.444201e-13 9.
       -6     2     1     2     0   103  3.1466800656e+01  1.3928045767e+01  1.9457316796e+02  2.6118783289e+02  1.7081046910e+02  1.245511e-13 9.
       24     2     3     0     0     0  2.4845176384e+01  2.7790982331e+01  7.8674052780e+01  1.1780246739e+02  7.9361157090e+01  3.469617e-14 9.
        5     1     3     0   101     0 -5.6311977040e+01 -4.1719028098e+01  1.9216860778e+02  2.0460530266e+02  4.8000000000e+00 0. 9.
      -24     2     4     0     0     0 -3.1636474770e+01  4.8303612832e+01  1.3670258299e+02  1.6879872322e+02  8.0444435578e+01  3.597953e-13 9.
       -5     1     4     0     0   103  6.3103275426e+01 -3.4375567065e+01  5.7870584966e+01  9.2389109666e+01  4.8000000000e+00 0. 9.
       -1     1     5     0     0   104 -2.3318051186e+01  1.3948848755e+01  5.7111272005e+01  6.3246408457e+01  3.3000000000e-01 0. 9.
        2     1     5     0   104     0  4.8163227570e+01  1.3842133576e+01  2.1562780775e+01  5.4556058936e+01  3.3000000000e-01 0. 9.
        1     1     7     0   105     0 -4.4912382385e+01  2.3655244172e+01  3.1063984102e+01  5.9512794226e+01  3.3000000000e-01 0. 9.
       -2     1     7     0     0   105  1.3275907615e+01  2.4648368660e+01  1.0563859889e+02  1.0928592899e+02  3.3000000000e-01 0. 9.
#pdf   21   21  8.069319e-02  9.090752e-03  1.742423e+02  1.098064e+00  8.708946e+00
</event>
<event>
    12  9999  1.000000e+00  1.787737e+02  7.877624e-03  1.071949e-01
       21    -1     0     0   101   102  0.0000000000e+00  0.0000000000e+00  2.7189421956e+02  2.7189421956e+02  0.0000000000e+00 0. 9.
       21    -1     0     0   103   101  0.0000000000e+00  0.0000000000e+00 -1.1857567952e+02  1.1857567952e+02  0.0000000000e+00 0. 9.
        6     2     1     2   103     0  3.1714565980e+01  3.9288752756e+01  5.8803788629e+01  1.8891549135e+02  1.7228394448e+02  7.873097e-14 9.
       -6     2     1     2     0   102 -3.1714565980e+01 -3.9288752756e+01  9.4514751414e+01  2.0155440774e+02  1.7070946446e+02  7.842005e-15 9.
       24     2     3     0     0     0  2.9801350337e+00 -3.7892627858e+01  7.0430708390e+00  9.1525322739e+01  8.2961119839e+01  3.010565e-13 9.
        5     1     3     0   103     0  2.8734430946e+01  7.7181380614e+01  5.1760717790e+01  9.7390168608e+01  4.8000000000e+00 0. 9.
      -24     2     4     0     0     0 -5.1360727942e+01  6.5699436245e+00  1.1337525375e+02  1.4800302809e+02  7.9811400365e+01  1.538740e-14 9.
       -5     1     4     0     0   102  1.9646161962e+01 -4.5858696381e+01 -1.8860502335e+01  5.3551379645e+01  4.8000000000e+00 0. 9.
       -1     1     5     0     0   104  3.2821243231e+00 -3.2030465444e-01  4.0847713191e+01  4.0981941244e+01  3.3000000000e-01 0. 9.
        2     1     5     0   104     0 -3.0198928934e-01 -3.7572323204e+01 -3.3804642352e+01  5.0543381496e+01  3.3000000000e-01 0. 9.
        1     1     7     0   105     0 -2.1837324815e+00 -1.3513207856e+01 -7.7555014909e+00  1.5736333038e+01  3.3000000000e-01 0. 9.
       -2     1     7     0     0   105 -4.9176995460e+01  2.0083151480e+01  1.2113075524e+02  1.3226669506e+02  3.3000000000e-01 0. 9.
#pdf   21   21  4.182988e-02  1.824241e-02  1.780201e+02  2.310677e+00  5.001252e+00
</event>
<event>
    12  9999  1.000000e+00  1.875243e+02  7.881926e-03  1.065682e-01
       21    -1     0     0   101   102  0.0000000000e+00  0.0000000000e+00  4.0357366584e+02  4.0357366584e+02  0.0000000000e+00 0. 9.
       21    -1     0     0   102   103  0.0000000000e+00  0.0000000000e+00 -2.2054813463e+02  2.2054813463e+02  0.0000000000e+00 0. 9.
        6     2     1     2   101     0 -2.0322828182e+00  7.6363473629e+01  3.3435433350e+02  3.8369129926e+02  1.7201942483e+02  3.728160e-13 9.
       -6     2     1     2     0   103  2.0322828182e+00 -7.6363473629e+01 -1.5132880229e+02  2.4043050122e+02  1.7050193323e+02  2.412360e-13 9.
       24     2     3     0     0     0 -4.0310225814e+01 -9.7463036641e-01  2.3716513219e+02  2.5363298887e+02  8.0352528938e+01  2.038344e-13 9.
        5     1     3     0   101     0  3.8277942995e+01  7.7338103995e+01  9.7189201308e+01  1.3005831039e+02  4.8000000000e+00 0. 9.
      -24     2     4     0     0     0 -1.4582227829e+00  2.1893231239e+01 -4.7541760034e+01  9.7387312558e+01  8.2113517233e+01  1.537452e-13 9.
       -5     1     4     0     0   103  3.4905056011e+00 -9.8256704867e+01 -1.0378704226e+02  1.4304318866e+02  4.8000000000e+00 0. 9.
       -1     1     5     0     0   104 -4.5373587935e+01  2.3587910382e+01  2.1208539439e+02  2.1816387283e+02  3.3000000000e-01 0. 9.
        2     1     5     0   104     0  5.0633621210e+00 -2.4562540748e+01  2.5079737803e+01  3.5469116035e+01  3.3000000000e-01 0. 9.
        3     1     7     0   105     0  7.6281274342e+00  3.8298461371e+01 -6.2294503237e+01  7.3524251816e+01  5.0000000000e-01 0. 9.
       -2     1     7     0     0   105 -9.0863502171e+00 -1.6405230132e+01  1.4752743203e+01  2.3863060742e+01  3.3000000000e-01 0. 9.
#pdf   21   21  6.208826e-02  3.393048e-02  1.868326e+02  1.497986e+00  2.843175e+00
</event>
<event>
    12  9999  1.000000e+00  1.769560e+02  7.876704e-03  1.073299e-01
       -1    -1     0     0     0   101  0.0000000000e+00  0.0000000000e+00  9.3874768546e+01  9.3874768546e+01  0.0000000000e+00 0. 9.
        1    -1     0     0   102     0  0.0000000000e+00  0.0000000000e+00 -4.2872116717e+02  4.2872116717e+02  0.0000000000e+00 0. 9.
       -6     2     1     2     0   101 -1.2966257666e+01 -4.2886213503e+01 -4.4652576604e+01  1.8293757437e+02  1.7165358247e+02  4.166162e-14 9.
        6     2     1     2   102     0  1.2966257666e+01  4.2886213503e+01 -2.9019382202e+02  3.3965836135e+02  1.7072784467e+02  1.680361e-13 9.
      -24     2     3     0     0     0 -3.0178284566e+01 -9.0794255592e+01 -4.0763615563e+01  1.3165796454e+02  8.0733026483e+01  1.244111e-14 9.
       -5     1     3     0     0   101  1.7212026900e+01  4.7908042089e+01 -3.8889610408e+00  5.1279609834e+01  4.8000000000e+00 0. 9.
       24     2     4     0     0     0  8.0269910967e+00  7.4640903226e+00 -2.9237235195e+02  3.0350716279e+02  8.0714685463e+01  1.677191e-13 9.
        5     1     4     0   102     0  4.9392665697e+00  3.5422123180e+01  2.1785299209e+00  3.6151198562e+01  4.8000000000e+00 0. 9.
       13     1     5     0     0     0  1.5752885953e+01 -6.8042992961e+01 -6.8075325002e+00  7.0173755562e+01  1.0566000000e-01  9.484373e+04 9.
      -14     1     5     0     0     0 -4.5931170520e+01 -2.2751262631e+01 -3.3956083063e+01  6.1484208977e+01  0.0000000000e+00 0. 9.
      -15     1     7     0     0     0  2.1392270061e+00  3.5856340271e+01 -2.4738006380e+02  2.4998061222e+02  1.7768200000e+00  1.181627e-01 9.
       16     1     7     0     0     0  5.8877640906e+00 -2.8392249949e+01 -4.4992288148e+01  5.3526550570e+01  0.0000000000e+00 0. 9.
#pdf   -1    1  1.444227e-02  6.595710e-02  1.765088e+02  4.422737e-01  4.027626e-01
</event>
<event>
    12  9999  1.000000e+00  2.257084e+02  7.898657e-03  1.042062e-01
       21    -1     0     0   101   102  0.0000000000e+00  0.0000000000e+00  2.2843646076e+02  2.2843646076e+02  0.0000000000e+00 0. 9.
       21    -1     0     0   103   101  0.0000000000e+00  0.0000000000e+00 -5.4624585614e+02  5.4624585614e+02  0.0000000000e+00 0. 9.
        6     2     1     2   103     0  4.0322576642e+01 -1.4220919278e+02 -4.5670966744e+02  5.0920247633e+02  1.6986487825e+02  9.712053e-14 9.
       -6     2     1     2     0   102 -4.0322576642e+01  1.4220919278e+02  1.3890027206e+02  2.6547984058e+02  1.7128016662e+02  1.720116e-14 9.
       24     2     3     0     0     0  5.1094505488e+01 -1.4407257880e+02 -4.6406156399e+02  4.9518116963e+02  8.0521420315e+01  2.318021e-13 9.
        5     1     3     0   103     0 -1.0771928845e+01  1.8633860241e+00  7.3518965489e+00  1.4021306693e+01  4.8000000000e+00 0. 9.
      -24     2     4     0     0     0  3.0947109675e+01  8.7821797767e+01  3.3636666210e+01  1.2712947505e+02  7.9750149547e+01  6.729987e-14 9.
       -5     1     4     0     0   102 -7.1269686317e+01  5.4387395010e+01  1.0526360585e+02  1.3835036553e+02  4.8000000000e+00 0. 9.
       -1     1     5     0     0   104  8.6436898443e+00 -1.0457698456e+02 -3.7081877948e+02  3.8537998805e+02  3.3000000000e-01 0. 9.
        2     1     5     0   104     0  4.2450815643e+01 -3.9495594243e+01 -9.3242784510e+01  1.0980118158e+02  3.3000000000e-01 0. 9.
       13     1     7     0     0     0 -1.9740667352e+01  6.7141694931e+00 -8.6249923355e+00  2.2564921367e+01  1.0566000000e-01  8.431829e+05 9.
      -14     1     7     0     0     0  5.0687777027e+01  8.1107628274e+01  4.2261658545e+01  1.0456455368e+02  0.0000000000e+00 0. 9.
#pdf   21   21  3.514407e-02  8.403782e-02  2.251742e+02  2.723399e+00  1.018504e+00
</event>
<event>
    12  9999  1.000000e+00  2.369205e+02  7.903045e-03  1.036058e-01
       21    -1     0     0   101   102  0.0000000000e+00  0.0000000000e+00  1.6250817368e+02  1.6250817368e+02  0.0000000000e+00 0. 9.
       21    -1     0     0   103   101  0.0000000000e+00  0.0000000000e+00 -2.1681802984e+03  2.1681802984e+03  0.0000000000e+00 0. 9.
        6     2     1     2   103     0  1.3723600046e+02  8.7693815289e+01 -2.0711748515e+03  2.0846549443e+03  1.7174704160e+02  1.326006e-13 9.
       -6     2     1     2     0   102 -1.3723600046e+02 -8.7693815289e+01  6.5502726779e+01  2.4603352778e+02  1.7238899185e+02  2.196577e-13 9.
       24     2     3     0     0     0  1.4921625817e+02  3.0452627422e+01 -1.2878262130e+03  1.2991116867e+03  7.7472352332e+01  2.881808e-13 9.
        5     1     3     0   103     0 -1.1980257707e+01  5.7241187867e+01 -7.8334863848e+02  7.8554325761e+02  4.8000000000e+00 0. 9.
      -24     2     4     0     0     0 -1.6904188587e+01 -4.8222985559e+01 -1.4120961118e+01  9.6365017318e+01  8.0471156894e+01  3.187657e-14 9.
       -5     1     4     0     0   102 -1.2033181187e+02 -3.9470829730e+01  7.9623687897e+01  1.4966851046e+02  4.8000000000e+00 0. 9.
      -13     1     5     0     0     0  1.5551464998e+01 -5.6289146400e+00 -3.5591482273e+01  3.9246624288e+01  1.0566000000e-01  7.558344e+05 9.
       14     1     5     0     0     0  1.3366479317e+02  3.6081542062e+01 -1.2522347308e+03  1.2598650624e+03  0.0000000000e+00 0. 9.
       13     1     7     0     0     0 -1.2430488978e+00 -3.4946789862e+01  3.1038778757e+01  4.6757248026e+01  1.0566000000e-01  5.106615e+04 9.
      -14     1     7     0     0     0 -1.5661139689e+01 -1.3276195697e+01 -4.5159739875e+01  4.9607769292e+01  0.0000000000e+00 0. 9.
#pdf   21   21  2.500126e-02  3.335662e-01  2.366875e+02  3.762710e+00  6.881613e-02
</event>
<event>
    12  9999  1.000000e+00  2.964679e+02  7.923403e-03  1.009176e-01
       21    -1     0     0   101   102  0.0000000000e+00  0.0000000000e+00  6.0977355443e+02  6.0977355443e+02  0.0000000000e+00 0. 9.
       21    -1     0     0   102   103  0.0000000000e+00  0.0000000000e+00 -1.4516486971e+02  1.4516486971e+02  0.0000000000e+00 0. 9.
        6     2     1     2   101     0 -8.4643420638e+01  2.2565102698e+02  2.6373840118e+02  3.9654454212e+02  1.7206607741e+02  4.819212e-14 9.
       -6     2     1     2     0   103  8.4643420638e+01 -2.2565102698e+02  2.0087028354e+02  3.5839388202e+02  1.7324667162e+02  9.990593e-15 9.
       24     2     3     0     0     0 -5.4975105074e+01  8.7855205250e+01  6.2623643190e+01  1.5090642758e+02  9.0056815018e+01  2.993712e-14 9.
        5     1     3     0   101     0 -2.9668315564e+01  1.3779582173e+02  2.0111475799e+02  2.4563811454e+02  4.8000000000e+00 0. 9.
      -24     2     4     0     0     0  8.3583292142e+01 -6.2073039342e+01  1.1066741942e+02  1.7152901479e+02  7.9597086965e+01  3.446901e-14 9.
       -5     1     4     0     0   103  1.0601284964e+00 -1.6357798764e+02  9.0202864112e+01  1.8686486723e+02  4.8000000000e+00 0. 9.
       -1     1     5     0     0   104 -3.9353529839e+01  8.7335895541e+01  1.0356865461e+01  9.6351608824e+01  3.3000000000e-01 0. 9.
        2     1     5     0   104     0 -1.5621575235e+01  5.1930970840e-01  5.2266777728e+01  5.4554818756e+01  3.3000000000e-01 0. 9.
       15     1     7     0     0     0  3.5450459166e+01 -2.8801286531e+01 -7.1142241137e-01  4.5715559409e+01  1.7768200000e+00  4.374150e-02 9.
      -16     1     7     0     0     0  4.8132832975e+01 -3.3271752811e+01  1.1137884184e+02  1.2581345538e+02  0.0000000000e+00 0. 9.
#pdf   21   21  9.381132e-02  2.233306e-02  2.961243e+02  8.571150e-01  4.143659e+00
</event>
<event>
    12  9999  1.000000e+00  1.886227e+02  7.882452e-03  1.064921e-01
       21    -1     0     0   101   102  0.0000000000e+00  0.0000000000e+00  7.4928220492e+01  7.4928220492e+01  0.0000000000e+00 0. 9.
       21    -1     0     0   102   103  0.0000000000e+00  0.0000000000e+00 -4.8157463627e+02  4.8157463627e+02  0.0000000000e+00 0. 9.
        6     2     1     2   101     0  3.8741972522e+01  8.2141597361e+01 -2.3041793646e+02  2.9481934451e+02  1.5993072877e+02  2.361130e-14 9.
       -6     2     1     2     0   103 -3.8741972522e+01 -8.2141597361e+01 -1.7622847932e+02  2.6168351225e+02  1.7080281382e+02  4.835239e-14 9.
       24     2     3     0     0     0  4.1779904996e+01  2.7217492026e+01 -5.2720234483e+01  1.0874032993e+02  8.0985701794e+01  5.389592e-14 9.
        5     1     3     0   101     0 -3.0379324739e+00  5.4924105335e+01 -1.7769770198e+02  1.8607901459e+02  4.8000000000e+00 0. 9.
      -24     2     4     0     0     0 -9.2875386031e+00 -1.1153521311e+02 -8.2458054556e+01  1.5898258293e+02  7.7134744289e+01  3.663292e-13 9.
       -5     1     4     0     0   103 -2.9454433919e+01  2.9393615746e+01 -9.3770424763e+01  1.0270092933e+02  4.8000000000e+00 0. 9.
       -1     1     5     0     0   104  4.0002344044e+01  7.2278462711e+00 -7.0856094601e+01  8.1689193489e+01  3.3000000000e-01 0. 9.
        2     1     5     0   104     0  1.7775609521e+00  1.9989645755e+01  1.8135860119e+01  2.7051136438e+01  3.3000000000e-01 0. 9.
        3     1     7     0   105     0  9.0072757366e+00 -6.1609001213e+00  1.2039831078e+01  1.6257159619e+01  5.0000000000e-01 0. 9.
       -4     1     7     0     0   105 -1.8294814340e+01 -1.0537431299e+02 -9.4497885634e+01  1.4272542331e+02  1.5000000000e+00 0. 9.
#pdf   21   21  1.152742e-02  7.408841e-02  1.839185e+02  7.265587e+00  1.215254e+00
</event>
<event>
    12  9999  1.000000e+00  1.950142e+02  7.885456e-03  1.060601e-01
       21    -1     0     0   101   102  0.0000000000e+00  0.0000000000e+00  3.4592626872e+02  3.4592626872e+02  0.0000000000e+00 0. 9.
       21    -1     0     0   102   103  0.0000000000e+00  0.0000000000e+00 -1.1243570043e+02  1.1243570043e+02  0.0000000000e+00 0. 9.
        6     2     1     2   101     0 -8.9036003961e+01  2.5095617284e+01  1.4998823785e+02  2.4485156262e+02  1.6999593000e+02  1.834472e-14 9.
       -6     2     1     2     0   103  8.9036003961e+01 -2.5095617284e+01  8.3502330440e+01  2.1351040653e+02  1.7336912787e+02  4.002081e-15 9.
       24     2     3     0     0     0 -6.2752888911e+01  1.7014060255e+01  9.4760432030e+00  1.0159364645e+02  7.7485936086e+01  3.643245e-13 9.
        5     1     3     0   101     0 -2.6283115051e+01  8.0815570292e+00  1.4051219465e+02  1.4325791617e+02  4.8000000000e+00 0. 9.
      -24     2     4     0     0     0  5.0092522077e+01  1.1844877565e+01 -1.7348100671e+01  9.9164246137e+01  8.2964023663e+01  7.905746e-14 9.
       -5     1     4     0     0   103  3.8943481884e+01 -3.6940494849e+01  1.0085043111e+02  1.1434616039e+02  4.8000000000e+00 0. 9.
       -1     1     5     0     0   104 -3.3435711505e+01  4.7995688249e+01  5.2888282374e+00  5.8733410410e+01  3.3000000000e-01 0. 9.
        2     1     5     0   104     0 -2.9317177406e+01 -3.0981627994e+01  4.1872149656e+00  4.2860236039e+01  3.3000000000e-01 0. 9.
       11     1     7     0     0     0 -1.0028346215e+01  3.2188182352e+01 -1.5072079159e+00  3.3747866405e+01  5.1100000000e-04 0. 9.
      -12     1     7     0     0     0  6.0120868292e+01 -2.0343304787e+01 -1.5840892756e+01  6.5416379731e+01  0.0000000000e+00 0. 9.
#pdf   21   21  5.321943e-02  1.729780e-02  1.935351e+02  1.778922e+00  5.226515e+00
</event>
<event>
    12  9999  1.000000e+00  3.785646e+02  7.945718e-03  9.814333e-02
       21    -1     0     0   101   102  0.0000000000e+00  0.0000000000e+00  8.6706479263e+02  8.6706479263e+02  0.0000000000e+00 0. 9.
       21    -1     0     0   102   103  0.0000000000e+00  0.0000000000e+00 -2.4561958210e+02  2.4561958210e+02  0.0000000000e+00 0. 9.
        6     2     1     2   101     0 -3.0584055917e+02 -1.4497298035e+02  6.2827219610e+02  7.3293026623e+02  1.6704852619e+02  2.485859e-14 9.
       -6     2     1     2     0   103  3.0584055917e+02  1.4497298035e+02 -6.8269855646e+00  3.7975410850e+02  1.7207836159e+02  2.105994e-14 9.
       24     2     3     0     0     0 -8.5360082223e+01 -8.3265847734e+01  2.0719697205e+02  2.5361117081e+02  8.4666969333e+01  1.266630e-14 9.
        5     1     3     0   101     0 -2.2048047694e+02 -6.1707132616e+01  4.2107522405e+02  4.7931909542e+02  4.8000000000e+00 0. 9.
      -24     2     4     0     0     0  2.5363072411e+02  1.7210895750e+02  8.2191607656e+00  3.1883075787e+02  8.7381119794e+01  8.998050e-14 9.
       -5     1     4     0     0   103  5.2209835054e+01 -2.7135977151e+01 -1.5046146330e+01  6.0923350628e+01  4.8000000000e+00 0. 9.
      -13     1     5     0     0     0 -6.2541030269e+01 -3.6191614858e+01  4.9822475301e+01  8.7769605572e+01  1.0566000000e-01  3.315676e+04 9.
       14     1     5     0     0     0 -2.2819051954e+01 -4.7074232876e+01  1.5737449675e+02  1.6584156524e+02  0.0000000000e+00 0. 9.
        1     1     7     0   104     0  8.4867825837e+01  1.0394742168e+02 -1.6296674593e+01  1.3517878842e+02  3.3000000000e-01 0. 9.
       -2     1     7     0     0   104  1.6876289828e+02  6.8161535817e+01  2.4515835359e+01  1.8365196945e+02  3.3000000000e-01 0. 9.
#pdf   21   21  1.333946e-01  3.778763e-02  3.774398e+02  4.963370e-01  2.467086e+00
</event>
<event>
    12  9999  1.000000e+00  2.559390e+02  7.910044e-03  1.026638e-01
       21    -1     0     0   101   102  0.0000000000e+00  0.0000000000e+00  1.2863570024e+02  1.2863570024e+02  0.0000000000e+00 0. 9.
       21    -1     0     0   102   103  0.0000000000e+00  0.0000000000e+00 -5.3317963021e+02  5.3317963021e+02  0.0000000000e+00 0. 9.
        6     2     1     2   101     0  4.8786899991e+01  1.8480947296e+02 -1.3160789890e+02  2.8716731696e+02  1.6914409825e+02  3.980434e-13 9.
       -6     2     1     2     0   103 -4.8786899991e+01 -1.8480947296e+02 -2.7293603107e+02  3.7464801349e+02  1.7126690879e+02  3.784317e-13 9.
       24     2     3     0     0     0  1.7974886851e+01  1.2316085294e+02 -1.1017387283e+01  1.4818874309e+02  7.9666985013e+01  1.739241e-13 9.
        5     1     3     0   101     0  3.0812013140e+01  6.1648620017e+01 -1.2059051162e+02  1.3897857387e+02  4.8000000000e+00 0. 9.
      -24     2     4     0     0     0 -3.7495935737e+00 -3.1158743694e+01 -6.2596745424e+01  1.1025708955e+02  8.5166580873e+01  1.396050e-14 9.
       -5     1     4     0     0   103 -4.5037306418e+01 -1.5365072927e+02 -2.1033928565e+02  2.6439092394e+02  4.8000000000e+00 0. 9.
       -3     1     5     0     0   104 -1.9727586069e+01  5.6792268575e+01 -3.3207882505e+01  6.8684444254e+01  5.0000000000e-01 0. 9.
        4     1     5     0   104     0  3.7702472920e+01  6.6368584367e+01  2.2190495222e+01  7.9504298835e+01  1.5000000000e+00 0. 9.
        1     1     7     0   105     0  2.5001114280e+01 -4.2168809117e+01 -6.2544958181e+01  7.9468514970e+01  3.3000000000e-01 0. 9.
       -2     1     7     0     0   105 -2.8750707854e+01  1.1010065423e+01 -5.1787242280e-02  3.0788574579e+01  3.3000000000e-01 0. 9.
#pdf   21   21  1.979011e-02  8.202764e-02  2.552341e+02  4.632388e+00  1.038659e+00
</event>
<event>
    12  9999  1.000000e+00  1.900987e+02  7.883155e-03  1.063907e-01
       21    -1     0     0   101   102  0.0000000000e+00  0.0000000000e+00  8.3151673227e+02  8.3151673227e+02  0.0000000000e+00 0. 9.
       21    -1     0     0   103   101  0.0000000000e+00  0.0000000000e+00 -5.2560320730e+01  5.2560320730e+01  0.0000000000e+00 0. 9.
        6     2     1     2   103     0 -7.0485336591e+01  4.4485550704e+01  2.0509512055e+02  2.7946553120e+02  1.7055740312e+02  6.239534e-14 9.
       -6     2     1     2     0   102  7.0485336591e+01 -4.4485550704e+01  5.7386129099e+02  6.0461152180e+02  1.7114661581e+02  7.816553e-14 9.
       24     2     3     0     0     0 -2.7829992825e+01  8.7312977918e+01  1.7055964436e+02  2.0968440202e+02  8.0491562001e+01  1.859377e-13 9.
        5     1     3     0   103     0 -4.2655343766e+01 -4.2827427214e+01  3.4535476196e+01  6.9781129180e+01  4.8000000000e+00 0. 9.
      -24     2     4     0     0     0  1.0282017997e+02 -5.7354807746e+01  3.4292734726e+02  3.7102066958e+02  7.8712186984e+01  3.008123e-14 9.
       -5     1     4     0     0   102 -3.2334843379e+01  1.2869257042e+01  2.3093394373e+02  2.3359085222e+02  4.8000000000e+00 0. 9.
      -13     1     5     0     0     0 -3.2483127945e+01  9.5227709693e+01  1.7304738262e+02  2.0017212116e+02  1.0566000000e-01  2.532043e+05 9.
       14     1     5     0     0     0  4.6531351199e+00 -7.9147317751e+00 -2.4877382600e+00  9.5122808604e+00  0.0000000000e+00 0. 9.
        3     1     7     0   104     0  8.3133219227e+01 -1.0845495010e+01  1.5274953288e+02  1.7424530610e+02  5.0000000000e-01 0. 9.
       -4     1     7     0     0   104  1.9686960743e+01 -4.6509312736e+01  1.9017781437e+02  1.9677536348e+02  1.5000000000e+00 0. 9.
#pdf   21   21  1.279257e-01  8.086203e-03  1.898341e+02  5.770949e-01  9.521509e+00
</event>
<event>
    12  9999  1.000000e+00  3.018291e+02  7.925035e-03  1.007088e-01
        1    -1     0     0   101     0  0.0000000000e+00  0.0000000000e+00  3.7368390311e+02  3.7368390311e+02  0.0000000000e+00 0. 9.
       -1    -1     0     0     0   102  0.0000000000e+00  0.0000000000e+00 -2.6347628802e+02  2.6347628802e+02  0.0000000000e+00 0. 9.
        6     2     1     2   101     0 -2.3897763044e+02  4.1321024992e+01 -3.0904755109e+01  3.0871392129e+02  1.8849786830e+02  8.686139e-14 9.
       -6     2     1     2     0   102  2.3897763044e+02 -4.1321024992e+01  1.4111237021e+02  3.2844626984e+02  1.7072350803e+02  9.084169e-14 9.
       24     2     3     0     0     0 -1.1189961936e+02 -5.2116283156e+01 -2.1648415545e+01  1.5063776472e+02  8.3579007418e+01  5.320338e-14 9.
        5     1     3     0   101     0 -1.2707801108e+02  9.3437308148e+01 -9.2563395640e+00  1.5807615657e+02  4.8000000000e+00 0. 9.
      -24     2     4     0     0     0  1.1385753411e+02  1.4326423742e+01  1.3509559274e+01  1.4121060440e+02  8.1173530865e+01  6.594703e-15 9.
       -5     1     4     0     0   102  1.2512009633e+02 -5.5647448734e+01  1.2760281093e+02  1.8723566544e+02  4.8000000000e+00 0. 9.
       -3     1     5     0     0   103  6.7486898281e+00  1.1796550114e+01 -6.3087964383e+00  1.4991808480e+01  5.0000000000e-01 0. 9.
        4     1     5     0   103     0 -1.1864830918e+02 -6.3912833271e+01 -1.5339619107e+01  1.3564595624e+02  1.5000000000e+00 0. 9.
        3     1     7     0   104     0  4.9234713829e+01  7.6839113661e+00  4.6655214838e+01  6.8264621960e+01  5.0000000000e-01 0. 9.
       -4     1     7     0     0   104  6.4622820282e+01  6.6425123758e+00 -3.3145655564e+01  7.2945982443e+01  1.5000000000e+00 0. 9.
#pdf    1   -1  5.748983e-02  4.053481e-02  2.965877e+02  4.154976e-01  2.247755e-01
</event>
<event>
    12  9999  1.000000e+00  2.464018e+02  7.906600e-03  1.031249e-01
       21    -1     0     0   101   102  0.0000000000e+00  0.0000000000e+00  7.2803988537e+02  7.2803988537e+02  0.0000000000e+00 0. 9.
       21    -1     0     0   103   101  0.0000000000e+00  0.0000000000e+00 -1.0479442816e+02  1.0479442816e+02  0.0000000000e+00 0. 9.
        6     2     1     2   103     0 -1.7702301718e+02 -1.8390185323e+01  1.2383537608e+02  2.7611840754e+02  1.7097025205e+02  6.035040e-13 9.
       -6     2     1     2     0   102  1.7702301718e+02  1.8390185323e+01  4.9941008113e+02  5.5671590599e+02  1.6984352599e+02  6.399464e-15 9.
       24     2     3     0     0     0 -6.0636997982e+01 -1.4083651386e+01  1.2441519979e+02  1.5955242667e+02  7.8119396809e+01  4.138282e-14 9.
        5     1     3     0   103     0 -1.1638601920e+02 -4.3065339367e+00 -5.7982371155e-01  1.1656598087e+02  4.8000000000e+00 0. 9.
      -24     2     4     0     0     0  1.4319068904e+02  3.4049505852e+01  2.4645296282e+02  3.0098130831e+02  9.0486146979e+01  2.019378e-14 9.
       -5     1     4     0     0   102  3.3832328148e+01 -1.5659320529e+01  2.5295711831e+02  2.5573459768e+02  4.8000000000e+00 0. 9.
       -3     1     5     0     0   104 -3.4746467846e+01  3.1094645229e+01  7.0978753837e+01  8.4926011833e+01  5.0000000000e-01 0. 9.
        4     1     5     0   104     0 -2.5890530136e+01 -4.5178296614e+01  5.3436445953e+01  7.4626414839e+01  1.5000000000e+00 0. 9.
        3     1     7     0   105     0  2.0007323827e+01 -2.4529427348e+01  7.8286386214e+01  8.4445213477e+01  5.0000000000e-01 0. 9.
       -4     1     7     0     0   105  1.2318336521e+02  5.8578933200e+01  1.6816657661e+02  2.1653609484e+02  1.5000000000e+00 0. 9.
#pdf   21   21  1.120061e-01  1.612222e-02  2.460125e+02  6.812789e-01  5.528357e+00
</event>
<event>
    12  9999  1.000000e+00  2.260724e+02  7.898803e-03  1.041861e-01
       21    -1     0     0   101   102  0.0000000000e+00  0.0000000000e+00  2.8204900182e+02  2.8204900182e+02  0.0000000000e+00 0. 9.
       21    -1     0     0   102   103  0.0000000000e+00  0.0000000000e+00 -3.7924292980e+02  3.7924292980e+02  0.0000000000e+00 0. 9.
        6     2     1     2   101     0 -1.9630925448e+01  1.4670750202e+02  1.9033794624e+02  2.9552459143e+02  1.7087359648e+02  5.031614e-14 9.
       -6     2     1     2     0   103  1.9630925448e+01 -1.4670750202e+02 -2.8753187422e+02  3.6576734020e+02  1.7088798694e+02  5.768040e-15 9.
       24     2     3     0     0     0  3.4492744555e+00  1.1792765400e+02  2.0963235795e+02  2.5361648240e+02  8.0354001589e+01  2.283052e-13 9.
        5     1     3     0   101     0 -2.3080199903e+01  2.8779848017e+01 -1.9294411705e+01  4.1908109030e+01  4.8000000000e+00 0. 9.
      -24     2     4     0     0     0 -5.2239476442e+01 -1.0714536352e+02 -1.7790743015e+02  2.2875976301e+02  8.0441802841e+01  9.920382e-14 9.
       -5     1     4     0     0   103  7.1870401889e+01 -3.9562138497e+01 -1.0962444407e+02  1.3700757719e+02  4.8000000000e+00 0. 9.
      -11     1     5     0     0     0  2.2357098946e+01  2.5449847130e+01  1.1528272503e+02  1.2015673632e+02  5.1100000000e-04 0. 9.
       12     1     5     0     0     0 -1.8907824491e+01  9.2477806873e+01  9.4349632914e+01  1.3345974607e+02  0.0000000000e+00 0. 9.
        1     1     7     0   104     0 -1.3939310989e+00 -7.6082693435e+01 -6.0938748653e+01  9.7489277727e+01  3.3000000000e-01 0. 9.
       -2     1     7     0     0   104 -5.0845545343e+01 -3.1062670088e+01 -1.1696868150e+02  1.3127048528e+02  3.3000000000e-01 0. 9.
#pdf   21   21  4.339215e-02  5.834507e-02  2.260669e+02  2.195250e+00  1.586706e+00
</event>
<event>
    12  9999  1.000000e+00  1.945923e+02  7.885260e-03  1.060880e-01
       21    -1     0     0   101   102  0.0000000000e+00  0.0000000000e+00  7.4756654225e+02  7.4756654225e+02  0.0000000000e+00 0. 9.
       21    -1     0     0   103   101  0.0000000000e+00  0.0000000000e+00 -7.3856910972e+01  7.3856910972e+01  0.0000000000e+00 0. 9.
        6     2     1     2   103     0  5.9228725867e+01  7.2042250979e+01  1.0569258118e+02  2.2073681594e+02  1.6986963326e+02  1.490912e-13 9.
       -6     2     1     2     0   102 -5.9228725867e+01 -7.2042250979e+01  5.6801705010e+02  6.0068663727e+02  1.7170596701e+02  6.909660e-14 9.
       24     2     3     0     0     0  5.2728568250e+01  3.8288270461e+01 -6.4510462960e+00  1.0334509378e+02  7.9951853293e+01  1.449560e-14 9.
        5     1     3     0   103     0  6.5001576174e+00  3.3753980518e+01  1.1214362748e+02  1.1739172217e+02  4.8000000000e+00 0. 9.
      -24     2     4     0     0     0 -9.9758192812e+01 -2.2321744461e+01  3.5119792382e+02  3.7452664970e+02  8.0500138722e+01  1.661737e-14 9.
       -5     1     4     0     0   102  4.0529466944e+01 -4.9720506518e+01  2.1681912627e+02  2.2615998757e+02  4.8000000000e+00 0. 9.
      -13     1     5     0     0     0  1.5891167671e+00 -1.9139418071e+01  1.4009652941e+01  2.3772340140e+01  1.0566000000e-01  6.281444e+04 9.
       14     1     5     0     0     0  5.1139451483e+01  5.7427688532e+01 -2.0460699237e+01  7.9572753637e+01  0.0000000000e+00 0. 9.
       11     1     7     0     0     0  3.7615019922e+00  1.8424665980e+01  5.4943774906e+01  5.8072675286e+01  5.1100000000e-04 0. 9.
      -12     1     7     0     0     0 -1.0351969480e+02 -4.0746410441e+01  2.9625414892e+02  3.1645397442e+02  0.0000000000e+00 0. 9.
#pdf   21   21  1.150102e-01  1.136260e-02  1.937881e+02  6.738990e-01  7.350881e+00
</event>
<event>
    12  9999  1.000000e+00  2.472708e+02  7.906919e-03  1.030820e-01
       21    -1     0     0   101   102  0.0000000000e+00  0.0000000000e+00  2.5789751639e+02  2.5789751639e+02  0.0000000000e+00 0. 9.
       21    -1     0     0   102   103  0.0000000000e+00  0.0000000000e+00 -3.7038653244e+02  3.7038653244e+02  0.0000000000e+00 0. 9.
        6     2     1     2   101     0 -9.4116162868e+01  1.5324777784e+02  1.3207894482e+02  2.8114988100e+02  1.7104874860e+02  1.241380e-13 9.
       -6     2     1     2     0   103  9.4116162868e+01 -1.5324777784e+02 -2.4456796086e+02  3.4713416783e+02  1.6836243485e+02  1.433360e-13 9.
       24     2     3     0     0     0 -2.3374783293e+01  5.8602248171e+01 -3.0516578921e+00  1.0157973076e+02  7.9552027628e+01  2.713869e-14 9.
        5     1     3     0   101     0 -7.0741379574e+01  9.4645529668e+01  1.3513060271e+02  1.7957015024e+02  4.8000000000e+00 0. 9.
      -24     2     4     0     0     0  1.0747340795e+02 -9.6642534502e+01 -2.3678517207e+02  2.8825988337e+02  7.8334090644e+01  4.617158e-15 9.
       -5     1     4     0     0   103 -1.3357245084e+01 -5.6605243338e+01 -7.7827887948e+00  5.8874284463e+01  4.8000000000e+00 0. 9.
       -1     1     5     0     0   104 -3.5425765031e+01  1.4720898419e+01  2.7117513058e+01  4.6980401155e+01  3.3000000000e-01 0. 9.
        2     1     5     0   104     0  1.2050981737e+01  4.3881349753e+01 -3.0169170950e+01  5.4599329600e+01  3.3000000000e-01 0. 9.
       11     1     7     0     0     0  3.7401854772e+01 -6.2298239595e+01 -1.7241472250e+02  1.8710105807e+02  5.1100000000e-04 0. 9.
      -12     1     7     0     0     0  7.0071553180e+01 -3.4344294907e+01 -6.4370449567e+01  1.0115882530e+02  0.0000000000e+00 0. 9.
#pdf   21   21  3.967654e-02  5.698254e-02  2.463507e+02  2.398201e+00  1.620096e+00
</event>
<event>
    12  9999  1.000000e+00  2.185355e+02  7.895736e-03  1.046101e-01
       21    -1     0     0   101   102  0.0000000000e+00  0.0000000000e+00  2.6174763017e+02  2.6174763017e+02  0.0000000000e+00 0. 9.
       21    -1     0     0   102   103  0.0000000000e+00  0.0000000000e+00 -2.4471699527e+02  2.4471699527e+02  0.0000000000e+00 0. 9.
        6     2     1     2   101     0 -1.3548254859e+02  9.5465436933e+00  1.3625256570e+02  2.5777455160e+02  1.7157010322e+02  8.008970e-14 9.
       -6     2     1     2     0   103  1.3548254859e+02 -9.5465436933e+00 -1.1922193081e+02  2.4869007384e+02  1.7083976870e+02  2.179583e-13 9.
       24     2     3     0     0     0 -1.5379183694e+02  4.1953776489e+01  9.5246113937e+01  2.0218653253e+02  7.9972015399e+01  1.432480e-14 9.
        5     1     3     0   101     0  1.8309288344e+01 -3.2407232795e+01  4.1006451767e+01  5.5588019065e+01  4.8000000000e+00 0. 9.
      -24     2     4     0     0     0  4.7533607524e+01 -6.1372365025e+00 -1.2919378680e+02  1.5998202729e+02  8.1277948981e+01  8.643239e-14 9.
       -5     1     4     0     0   103  8.7948941070e+01 -3.4093071908e+00  9.9718559927e+00  8.8708046551e+01  4.8000000000e+00 0. 9.
       -1     1     5     0     0   104 -3.5606001483e+01  4.3167463109e+01  1.0966442998e+01  5.7022705871e+01  3.3000000000e-01 0. 9.
        2     1     5     0   104     0 -1.1818583546e+02 -1.2136866201e+00  8.4279670939e+01  1.4516382666e+02  3.3000000000e-01 0. 9.
        1     1     7     0   105     0  5.5966323538e+01 -3.1520871500e+01 -6.9885897523e+01  9.4920715774e+01  3.3000000000e-01 0. 9.
       -2     1     7     0     0   105 -8.4327160142e+00  2.5383634998e+01 -5.9307889281e+01  6.5061311514e+01  3.3000000000e-01 0. 9.
#pdf   21   21  4.026887e-02  3.764877e-02  2.182496e+02  2.377292e+00  2.545917e+00
</event>
<event>
    12  9999  1.000000e+00  1.800690e+02  7.878273e-03  1.070998e-01
       21    -1     0     0   101   102  0.0000000000e+00  0.0000000000e+00  1.1365039848e+02  1.1365039848e+02  0.0000000000e+00 0. 9.
       21    -1     0     0   103   101  0.0000000000e+00  0.0000000000e+00 -2.8603188149e+02  2.8603188149e+02  0.0000000000e+00 0. 9.
        6     2     1     2   103     0  5.0867979580e+01  2.3953692805e+01 -9.6486645040e+01  2.0470599677e+02  1.7156206369e+02  9.104070e-13 9.
       -6     2     1     2     0   102 -5.0867979580e+01 -2.3953692805e+01 -7.5894837970e+01  1.9497628320e+02  1.7057078833e+02  1.757807e-15 9.
       24     2     3     0     0     0 -3.3514287964e+01  5.9813445435e+00 -1.8247270031e+01  8.8139225435e+01  7.9224845954e+01  3.778145e-13 9.
        5     1     3     0   103     0  8.4382267544e+01  1.7972348262e+01 -7.8239375009e+01  1.1656677134e+02  4.8000000000e+00 0. 9.
      -24     2     4     0     0     0  2.9468966340e+01  1.0973093078e+01 -1.5658405000e+01  8.8555546923e+01  8.1290039334e+01  3.156206e-14 9.
       -5     1     4     0     0   102 -8.0336945920e+01 -3.4926785883e+01 -6.0236432971e+01  1.0642073627e+02  4.8000000000e+00 0. 9.
       -3     1     5     0     0   104 -3.3816921510e+01  3.0587148964e+01 -3.5717301669e+01  5.7923514229e+01  5.0000000000e-01 0. 9.
        4     1     5     0   104     0  3.0263354623e-01 -2.4605804421e+01  1.7470031637e+01  3.0215711206e+01  1.5000000000e+00 0. 9.
        3     1     7     0   105     0  4.4862414871e+00  2.9650977622e+00 -4.7196653914e+01  4.7504655646e+01  5.0000000000e-01 0. 9.
       -4     1     7     0     0   105  2.4982724853e+01  8.0079953161e+00  3.1538248914e+01  4.1050891277e+01  1.5000000000e+00 0. 9.
#pdf   21   21  1.748468e-02  4.400490e-02  1.795988e+02  5.183217e+00  2.191450e+00
</event>
<event>
    12  9999  1.000000e+00  1.793495e+02  7.877913e-03  1.071525e-01
       21    -1     0     0   101   102  0.0000000000e+00  0.0000000000e+00  1.3432910843e+02  1.3432910843e+02  0.0000000000e+00 0. 9.
       21    -1     0     0   103   101  0.0000000000e+00  0.0000000000e+00 -2.8978866642e+02  2.8978866642e+02  0.0000000000e+00 0. 9.
        6     2     1     2   103     0  5.3369693757e+01  2.1675954326e+00 -1.6610470398e+02  2.4445189908e+02  1.7121020881e+02  2.588359e-13 9.
       -6     2     1     2     0   102 -5.3369693757e+01 -2.1675954326e+00  1.0645145996e+01  1.7966587577e+02  1.7121181355e+02  4.188298e-14 9.
       24     2     3     0     0     0  8.3950712059e+01 -1.8341513505e+01 -5.6411968825e+01  1.2864447974e+02  7.7349588025e+01  2.372755e-14 9.
        5     1     3     0   103     0 -3.0581018302e+01  2.0509108938e+01 -1.0969273515e+02  1.1580741934e+02  4.8000000000e+00 0. 9.
      -24     2     4     0     0     0 -2.0397948464e-01 -5.7145490458e+01 -1.1482346509e+01  9.9904807319e+01  8.1138631717e+01  2.548713e-14 9.
       -5     1     4     0     0   102 -5.3165714272e+01  5.4977895025e+01  2.2127492504e+01  7.9761068448e+01  4.8000000000e+00 0. 9.
       -1     1     5     0     0   104  7.2946455696e+01  1.9541926749e+01 -4.3407598733e+01  8.7105687687e+01  3.3000000000e-01 0. 9.
        2     1     5     0   104     0  1.1004256362e+01 -3.7883440254e+01 -1.3004370093e+01  4.1538792051e+01  3.3000000000e-01 0. 9.
       11     1     7     0     0     0 -1.7898654000e+01 -1.1202871880e+01  2.9202704341e+01  3.6036982316e+01  5.1100000000e-04 0. 9.
      -12     1     7     0     0     0  1.7694674515e+01 -4.5942618578e+01 -4.0685050850e+01  6.3867825003e+01  0.0000000000e+00 0. 9.
#pdf   21   21  2.066602e-02  4.458287e-02  1.793487e+02  4.492544e+00  2.161920e+00
</event>
<event>
    12  9999  1.000000e+00  2.017400e+02  7.888514e-03  1.056241e-01
       21    -1     0     0   101   102  0.0000000000e+00  0.0000000000e+00  6.2974087442e+01  6.2974087442e+01  0.0000000000e+00 0. 9.
       21    -1     0     0   103   101  0.0000000000e+00  0.0000000000e+00 -6.5322075180e+02  6.5322075180e+02  0.0000000000e+00 0. 9.
        6     2     1     2   103     0 -9.3867127892e+01 -4.9762108212e+01 -2.5851511925e+02  3.2804285069e+02  1.7174032694e+02  3.401935e-14 9.
       -6     2     1     2     0   102  9.3867127892e+01  4.9762108212e+01 -3.3173154511e+02  3.8815198855e+02  1.7125665851e+02  3.007058e-14 9.
       24     2     3     0     0     0 -1.1998392209e+02 -4.9780808684e+01 -2.5863567020e+02  3.0148834407e+02  8.4430688956e+01  5.078572e-14 9.
        5     1     3     0   103     0  2.6116794199e+01  1.8700472109e-02  1.2055095834e-01  2.6554506613e+01  4.8000000000e+00 0. 9.
      -24     2     4     0     0     0  3.8444737734e+01  4.7495501391e+01 -3.1435693071e+02  3.2982792780e+02  7.8945307392e+01  1.722214e-14 9.
       -5     1     4     0     0   102  5.5422390158e+01  2.2666068207e+00 -1.7374614402e+01  5.8324060755e+01  4.8000000000e+00 0. 9.
       -3     1     5     0     0   104 -5.6248363199e+00  7.1017686900e+00 -8.7344143047e+01  8.7814140244e+01  5.0000000000e-01 0. 9.
        4     1     5     0   104     0 -1.1435908577e+02 -5.6882577374e+01 -1.7129152716e+02  2.1367420383e+02  1.5000000000e+00 0. 9.
        1     1     7     0   105     0  4.5534447844e+01  6.4734339723e+01 -2.2408977388e+02  2.3765575175e+02  3.3000000000e-01 0. 9.
       -2     1     7     0     0   105 -7.0897101102e+00 -1.7238838332e+01 -9.0267156825e+01  9.2172176050e+01  3.3000000000e-01 0. 9.
#pdf   21   21  9.688321e-03  1.004955e-01  2.015345e+02  8.318248e+00  8.115948e-01
</event>
<event>
    12  9999  1.000000e+00  2.672393e+02  7.913966e-03  1.021442e-01
       21    -1     0     0   101   102  0.0000000000e+00  0.0000000000e+00  4.7882405457e+02  4.7882405457e+02  0.0000000000e+00 0. 9.
       21    -1     0     0   103   101  0.0000000000e+00  0.0000000000e+00 -2.1678340117e+02  2.1678340117e+02  0.0000000000e+00 0. 9.
        6     2     1     2   103     0  1.8864355683e+02  8.0094919003e+01 -6.3280314513e+01  2.7453378420e+02  1.7135580783e+02  2.005783e-14 9.
       -6     2     1     2     0   102 -1.8864355683e+02 -8.0094919003e+01  3.2532096792e+02  4.2107367154e+02  1.7166163555e+02  8.154855e-14 9.
       24     2     3     0     0     0  1.7465140929e+02  1.1382658684e+02 -7.4417008735e+01  2.3605428880e+02  8.2000789202e+01  2.819011e-14 9.
        5     1     3     0   103     0  1.3992147532e+01 -3.3731667841e+01  1.1136694222e+01  3.8479495398e+01  4.8000000000e+00 0. 9.
      -24     2     4     0     0     0 -6.5129530606e+01 -2.2390437359e+01  2.3026957725e+02  2.5481084123e+02  8.4624459595e+01  2.932413e-14 9.
       -5     1     4     0     0   102 -1.2351402622e+02 -5.7704481645e+01  9.5051390672e+01  1.6626283031e+02  4.8000000000e+00 0. 9.
       -1     1     5     0     0   104  4.1295001452e+01  6.9786762726e+01 -4.4370764058e+01  9.2435615429e+01  3.3000000000e-01 0. 9.
        2     1     5     0   104     0  1.3335640784e+02  4.4039824118e+01 -3.0046244676e+01  1.4361867337e+02  3.3000000000e-01 0. 9.
        3     1     7     0   105     0 -6.2387590295e+01  1.9337475202e+01  1.6285235792e+02  1.7546307261e+02  5.0000000000e-01 0. 9.
       -4     1     7     0     0   105 -2.7419403117e+00 -4.1727912561e+01  6.7417219323e+01  7.9347768617e+01  1.5000000000e+00 0. 9.
#pdf   21   21  7.366524e-02  3.335129e-02  2.671412e+02  1.185385e+00  2.845988e+00
</event>
<event>
    12  9999  1.000000e+00  1.896882e+02  7.882960e-03  1.064188e-01
       21    -1     0     0   101   102  0.0000000000e+00  0.0000000000e+00  1.8733254355e+03  1.8733254355e+03  0.0000000000e+00 0. 9.
       21    -1     0     0   102   103  0.0000000000e+00  0.0000000000e+00 -1.9303022366e+01  1.9303022366e+01  0.0000000000e+00 0. 9.
        6     2     1     2   101     0 -7.6550074682e+01  3.0562364907e+01  9.9148494889e+02  1.0093855697e+03  1.7036094713e+02  5.132123e-15 9.
       -6     2     1     2     0   103  7.6550074682e+01 -3.0562364907e+01  8.6253746429e+02  8.8324288823e+02  1.7132761084e+02  1.444667e-13 9.
       24     2     3     0     0     0 -1.1251438384e+02  5.0132993456e+01  7.1281598828e+02  7.2768382910e+02  7.9020999618e+01  2.893144e-14 9.
        5     1     3     0   101     0  3.5964309161e+01 -1.9570628549e+01  2.7866896061e+02  2.8170174057e+02  4.8000000000e+00 0. 9.
      -24     2     4     0     0     0 -2.1074628520e+01 -4.7354216202e+00  4.9692590866e+02  5.0391128755e+02  8.0775385059e+01  2.740955e-14 9.
       -5     1     4     0     0   103  9.7624703202e+01 -2.5826943287e+01  3.6561155562e+02  3.7933160069e+02  4.8000000000e+00 0. 9.
      -13     1     5     0     0     0 -3.2360418456e+01  1.4011880993e+01  4.3176902962e+02  4.3320668923e+02  1.0566000000e-01  9.601833e+05 9.
       14     1     5     0     0     0 -8.0153965387e+01  3.6121112463e+01  2.8104695866e+02  2.9447713987e+02  0.0000000000e+00 0. 9.
        3     1     7     0   104     0 -3.7092233607e+00  1.1572084611e+01  8.3502296834e+00  1.4752891783e+01  5.0000000000e-01 0. 9.
       -4     1     7     0     0   104 -1.7365405159e+01 -1.6307506232e+01  4.8857567898e+02  4.8915839577e+02  1.5000000000e+00 0. 9.
#pdf   21   21  2.882039e-01  2.969696e-03  1.892533e+02  1.155184e-01  1.908924e+01
</event>
<event>
    12  9999  1.000000e+00  2.467088e+02  7.906713e-03  1.031097e-01
       21    -1     0     0   101   102  0.0000000000e+00  0.0000000000e+00  7.6275511867e+02  7.6275511867e+02  0.0000000000e+00 0. 9.
       21    -1     0     0   103   101  0.0000000000e+00  0.0000000000e+00 -6.3967686862e+02  6.3967686862e+02  0.0000000000e+00 0. 9.
        6     2     1     2   103     0  3.4303555654e+01 -1.7533109812e+02 -5.9449882676e+02  6.4346910568e+02  1.6942817666e+02  1.127655e-14 9.
       -6     2     1     2     0   102 -3.4303555654e+01  1.7533109812e+02  7.1757707681e+02  7.5896288161e+02  1.7085100705e+02  3.840453e-13 9.
       24     2     3     0     0     0  6.1987334380e+01 -1.4109040792e+02 -5.6282713311e+02  5.8901772692e+02  8.0115966162e+01  3.164362e-14 9.
        5     1     3     0   103     0 -2.7683778726e+01 -3.4240690198e+01 -3.1671693651e+01  5.4451378757e+01  4.8000000000e+00 0. 9.
      -24     2     4     0     0     0 -3.1266420975e+01  7.0092583315e+01  1.8583203956e+02  2.1687414919e+02  8.1303692059e+01  1.439551e-13 9.
       -5     1     4     0     0   102 -3.0371346794e+00  1.0523851481e+02  5.3174503725e+02  5.4208873243e+02  4.8000000000e+00 0. 9.
       -3     1     5     0     0   104  7.5508230986e+01 -1.0946092715e+02 -3.7070030728e+02  3.9383010974e+02  5.0000000000e-01 0. 9.
        4     1     5     0   104     0 -1.3520896605e+01 -3.1629480774e+01 -1.9212682583e+02  1.9518761718e+02  1.5000000000e+00 0. 9.
        3     1     7     0   105     0  1.2061007906e+01 -7.7574966641e+00  6.6005318142e+01  6.7547010958e+01  5.0000000000e-01 0. 9.
       -4     1     7     0     0   105 -4.3327428881e+01  7.7850079979e+01  1.1982672142e+02  1.4932713823e+02  1.5000000000e+00 0. 9.
#pdf   21   21  1.173469e-01  9.841183e-02  2.462187e+02  6.362895e-01  8.178594e-01
</event>
<event>
    12  9999  1.000000e+00  1.774575e+02  7.876959e-03  1.072925e-01
       21    -1     0     0   101   102  0.0000000000e+00  0.0000000000e+00  9.0484465663e+02  9.0484465663e+02  0.0000000000e+00 0. 9.
       21    -1     0     0   103   101  0.0000000000e+00  0.0000000000e+00 -8.6884265190e+01  8.6884265190e+01  0.0000000000e+00 0. 9.
        6     2     1     2   103     0 -3.9961204398e+00 -4.5302083595e+01  2.5671254175e+01  1.7995151369e+02  1.7220710273e+02  1.164788e-13 9.
       -6     2     1     2     0   102  3.9961204398e+00  4.5302083595e+01  7.9228913726e+02  8.1177740813e+02  1.7085735445e+02  1.147284e-13 9.
       24     2     3     0     0     0  6.3720337985e+01 -3.8005438343e+01  1.2949497398e+01  1.1049906327e+02  8.0855789427e+01  7.579434e-14 9.
        5     1     3     0   103     0 -6.7716458425e+01 -7.2966452516e+00  1.2721756777e+01  6.9452450418e+01  4.8000000000e+00 0. 9.
      -24     2     4     0     0     0 -3.6832181727e+01  6.8864728092e+01  6.9299134012e+02  7.0175358802e+02  7.8244108003e+01  2.093712e-13 9.
       -5     1     4     0     0   102  4.0828302167e+01 -2.3562644498e+01  9.9297797143e+01  1.1002382011e+02  4.8000000000e+00 0. 9.
       -1     1     5     0     0   104  6.2674396293e+00 -9.0708955262e+00  3.9422316542e+01  4.0936412724e+01  3.3000000000e-01 0. 9.
        2     1     5     0   104     0  5.7452898356e+01 -2.8934542817e+01 -2.6472819144e+01  6.9562650545e+01  3.3000000000e-01 0. 9.
       11     1     7     0     0     0 -3.6161917820e+00  5.1938129791e+01  1.7915866536e+02  1.8657029116e+02  5.1100000000e-04 0. 9.
      -12     1     7     0     0     0 -3.3215989945e+01  1.6926598301e+01  5.1383267476e+02  5.1518329686e+02  0.0000000000e+00 0. 9.
#pdf   21   21  1.392069e-01  1.336681e-02  1.768063e+02  5.112226e-01  6.461094e+00
</event>
<event>
    12  9999  1.000000e+00  1.849722e+02  7.880692e-03  1.067471e-01
       21    -1     0     0   101   102  0.0000000000e+00  0.0000000000e+00  2.2331005742e+02  2.2331005742e+02  0.0000000000e+00 0. 9.
       21    -1     0     0   102   103  0.0000000000e+00  0.0000000000e+00 -5.1362854981e+02  5.1362854981e+02  0.0000000000e+00 0. 9.
        6     2     1     2   101     0  6.7868081371e+01 -5.3764983019e+00  1.6361839450e+02  2.4656583364e+02  1.7143146764e+02  7.328722e-14 9.
       -6     2     1     2     0   103 -6.7868081371e+01  5.3764983019e+00 -4.5393688689e+02  4.9037277359e+02  1.7254499875e+02  2.026171e-13 9.
       24     2     3     0     0     0  2.8312066129e+01 -4.3926401969e+01  1.6477822481e+02  1.9111172089e+02  8.1490641245e+01  4.734671e-14 9.
        5     1     3     0   101     0  3.9556015243e+01  3.8549903667e+01 -1.1598303138e+00  5.5454112751e+01  4.8000000000e+00 0. 9.
      -24     2     4     0     0     0 -1.1154050550e+02  7.4129973140e+00 -2.9897891435e+02  3.2929378299e+02  8.0930633241e+01  3.610069e-14 9.
       -5     1     4     0     0   103  4.3672424126e+01 -2.0364990122e+00 -1.5495797254e+02  1.6107899059e+02  4.8000000000e+00 0. 9.
      -13     1     5     0     0     0  1.1946619651e+01 -4.8943042544e+00  1.4287254998e+02  1.4345470587e+02  1.0566000000e-01  5.398516e+05 9.
       14     1     5     0     0     0  1.6365446477e+01 -3.9032097715e+01  2.1905674832e+01  4.7657015016e+01  0.0000000000e+00 0. 9.
        3     1     7     0   104     0  3.5737848359e+00 -1.8323518365e+01 -5.9052526600e+01  6.1935241674e+01  5.0000000000e-01 0. 9.
       -4     1     7     0     0   104 -1.1511429033e+02  2.5736515679e+01 -2.3992638775e+02  2.6735854132e+02  1.5000000000e+00 0. 9.
#pdf   21   21  3.435539e-02  7.901978e-02  1.844552e+02  2.810293e+00  1.121769e+00
</event>
<event>
    12  9999  1.000000e+00  2.840284e+02  7.919503e-03  1.014205e-01
       -2    -1     0     0     0   101  0.0000000000e+00  0.0000000000e+00  6.6883248488e+01  6.6883248488e+01  0.0000000000e+00 0. 9.
        2    -1     0     0   102     0  0.0000000000e+00  0.0000000000e+00 -1.8532431401e+03  1.8532431401e+03  0.0000000000e+00 0. 9.
       -6     2     1     2     0   101 -2.1712362204e+02 -5.4003399275e+01 -1.4555904772e+03  1.4825935763e+03  1.7111703846e+02  1.181558e-13 9.
        6     2     1     2   102     0  2.1712362204e+02  5.4003399275e+01 -3.3076941443e+02  4.3753281229e+02  1.7879463617e+02  5.679290e-14 9.
      -24     2     3     0     0     0 -9.5025802166e+01  3.2949453118e+01 -5.6529184381e+02  5.7975174478e+02  8.0259873928e+01  1.133922e-13 9.
       -5     1     3     0     0   101 -1.2209781987e+02 -8.6952852394e+01 -8.9029863338e+02  9.0284183153e+02  4.8000000000e+00 0. 9.
       24     2     4     0     0     0  2.0035004609e+02 -1.2174759957e+01 -2.7148372836e+02  3.4698595048e+02  8.0046669646e+01  8.272902e-14 9.
        5     1     4     0   102     0  1.6773575952e+01  6.6178159233e+01 -5.9285686076e+01  9.0546861807e+01  4.8000000000e+00 0. 9.
        1     1     5     0   103     0  3.6870575631e+00  2.1718671081e+01 -4.5537069278e+01  5.0586842612e+01  3.3000000000e-01 0. 9.
       -2     1     5     0     0   103 -9.8712859729e+01  1.1230782037e+01 -5.1975477453e+02  5.2916490217e+02  3.3000000000e-01 0. 9.
      -15     1     7     0     0     0  1.9637315329e+02 -1.0382509474e+01 -2.7715220769e+02  3.3983336380e+02  1.7768200000e+00  3.745826e-02 9.
       16     1     7     0     0     0  3.9768928003e+00 -1.7922504828e+00  5.6684793392e+00  7.1525866760e+00  0.0000000000e+00 0. 9.
#pdf   -2    2  1.028973e-02  2.851143e-01  2.816737e+02  5.223014e-01  3.160857e-01
</event>
<event>
    12  9999  1.000000e+00  2.313325e+02  7.900884e-03  1.039005e-01
       21    -1     0     0   101   102  0.0000000000e+00  0.0000000000e+00  1.0653305111e+03  1.0653305111e+03  0.0000000000e+00 0. 9.
       21    -1     0     0   103   101  0.0000000000e+00  0.0000000000e+00 -1.6296354381e+02  1.6296354381e+02  0.0000000000e+00 0. 9.
        6     2     1     2   103     0 -1.4634807823e+01 -1.4973075490e+02 -6.1294491725e+01  2.3658305326e+02  1.7199142366e+02  2.056958e-13 9.
       -6     2     1     2     0   102  1.4634807823e+01  1.4973075490e+02  9.6366145905e+02  9.9171100168e+02  1.7948210672e+02  3.062201e-13 9.
       24     2     3     0     0     0  4.5942251101e+01 -4.4933647558e+01 -4.9778642704e+00  1.0299182487e+02  8.0329407681e+01  5.230942e-14 9.
        5     1     3     0   103     0 -6.0577058925e+01 -1.0479710734e+02 -5.6316627455e+01  1.3359122839e+02  4.8000000000e+00 0. 9.
      -24     2     4     0     0     0 -3.7340825240e+01  9.3741133472e+01  8.0826740035e+02  8.1848670310e+02  8.0265530246e+01  2.444994e-14 9.
       -5     1     4     0     0   102  5.1975633063e+01  5.5989621429e+01  1.5539405870e+02  1.7322429858e+02  4.8000000000e+00 0. 9.
       -3     1     5     0     0   104  6.8987557964e+01 -3.7323544868e+01 -5.8889086212e+00  7.8659134244e+01  5.0000000000e-01 0. 9.
        4     1     5     0   104     0 -2.3045306862e+01 -7.6101026894e+00  9.1104435077e-01  2.4332690627e+01  1.5000000000e+00 0. 9.
       11     1     7     0     0     0  1.0135142593e+01  9.0541084877e+00  3.3945408736e+02  3.3972602994e+02  5.1100000000e-04 0. 9.
      -12     1     7     0     0     0 -4.7475967832e+01  8.4687024985e+01  4.6881331300e+02  4.7876067316e+02  0.0000000000e+00 0. 9.
#pdf   21   21  1.638970e-01  2.507131e-02  2.285050e+02  3.768123e-01  3.757261e+00
</event>
<event>
    12  9999  1.000000e+00  1.918068e+02  7.883961e-03  1.062746e-01
       21    -1     0     0   101   102  0.0000000000e+00  0.0000000000e+00  1.0908763028e+02  1.0908763028e+02  0.0000000000e+00 0. 9.
       21    -1     0     0   102   103  0.0000000000e+00  0.0000000000e+00 -4.1430419886e+02  4.1430419886e+02  0.0000000000e+00 0. 9.
        6     2     1     2   101     0  9.3358346139e+00 -7.9524813255e+01 -3.8194840963e+01  1.9316056661e+02  1.7158323020e+02  1.860544e-14 9.
       -6     2     1     2     0   103 -9.3358346139e+00  7.9524813255e+01 -2.6702172762e+02  3.3023126253e+02  1.7703313250e+02  1.673232e-13 9.
       24     2     3     0     0     0 -3.5975654084e+01 -1.1675208823e+01 -4.7441869028e+01  1.1090944286e+02  9.2841883819e+01  5.199701e-14 9.
        5     1     3     0   101     0  4.5311488698e+01 -6.7849604432e+01  9.2470280647e+00  8.2251123747e+01  4.8000000000e+00 0. 9.
      -24     2     4     0     0     0 -4.2193723778e+01  6.4228702906e+01 -7.3517725053e+01  1.3330373556e+02  8.0370351580e+01  3.907233e-14 9.
       -5     1     4     0     0   103  3.2857889164e+01  1.5296110349e+01 -1.9350400256e+02  1.9692752697e+02  4.8000000000e+00 0. 9.
       -1     1     5     0     0   104  6.0263927582e+00 -3.9066257727e+01  3.1775706972e+00  3.9657228319e+01  3.3000000000e-01 0. 9.
        2     1     5     0   104     0 -4.2002046842e+01  2.7391048903e+01 -5.0619439725e+01  7.1252214541e+01  3.3000000000e-01 0. 9.
        1     1     7     0   105     0 -4.0993205182e+01 -1.0270016619e+00 -9.9538433087e+00  4.2198169393e+01  3.3000000000e-01 0. 9.
       -2     1     7     0     0   105 -1.2005185964e+00  6.5255704568e+01 -6.3563881744e+01  9.1105566163e+01  3.3000000000e-01 0. 9.
#pdf   21   21  1.678271e-02  6.373911e-02  1.893467e+02  5.362078e+00  1.451529e+00
</event>
<event>
    12  9999  1.000000e+00  2.070588e+02  7.890863e-03  1.052920e-01
       21    -1     0     0   101   102  0.0000000000e+00  0.0000000000e+00  1.5017413544e+03  1.5017413544e+03  0.0000000000e+00 0. 9.
       21    -1     0     0   102   103  0.0000000000e+00  0.0000000000e+00 -1.6851355870e+02  1.6851355870e+02  0.0000000000e+00 0. 9.
        6     2     1     2   101     0  2.9130441511e+01  1.1601531354e+02  1.4268847890e+03  1.4416140462e+03  1.6716076600e+02  1.494291e-13 9.
       -6     2     1     2     0   103 -2.9130441511e+01 -1.1601531354e+02 -9.3656993291e+01  2.2864086684e+02  1.7087093960e+02  1.329436e-12 9.
       24     2     3     0     0     0  1.2214222704e+01  4.7818419269e+01  1.2025234359e+03  1.2064587112e+03  8.3929848429e+01  1.607607e-13 9.
        5     1     3     0   101     0  1.6916218807e+01  6.8196894270e+01  2.2436135310e+02  2.3515533507e+02  4.8000000000e+00 0. 9.
      -24     2     4     0     0     0 -8.3065454696e+01 -8.5334409804e+01 -4.2599970753e+01  1.4814140690e+02  7.7131625604e+01  6.705556e-14 9.
       -5     1     4     0     0   103  5.3935013185e+01 -3.0680903734e+01 -5.1057022538e+01  8.0499459947e+01  4.8000000000e+00 0. 9.
       -3     1     5     0     0   104 -2.3471525622e+01  5.4087958123e+01  6.1608733320e+02  6.1890247362e+02  5.0000000000e-01 0. 9.
        4     1     5     0   104     0  3.5685748325e+01 -6.2695388548e+00  5.8643610266e+02  5.8755623753e+02  1.5000000000e+00 0. 9.
        3     1     7     0   105     0 -3.7996218029e+01 -3.3892782140e+01 -5.8859083948e+01  7.7827212650e+01  5.0000000000e-01 0. 9.
       -4     1     7     0     0   105 -4.5069236666e+01 -5.1441627664e+01  1.6259113195e+01  7.0314194245e+01  1.5000000000e+00 0. 9.
#pdf   21   21  2.310371e-01  2.592516e-02  2.055501e+02  1.966232e-01  3.655932e+00
</event>
<event>
    12  9999  1.000000e+00  2.076206e+02  7.891107e-03  1.052575e-01
       21    -1     0     0   101   102  0.0000000000e+00  0.0000000000e+00  1.8986468354e+02  1.8986468354e+02  0.0000000000e+00 0. 9.
       21    -1     0     0   103   101  0.0000000000e+00  0.0000000000e+00 -3.9332415793e+02  3.9332415793e+02  0.0000000000e+00 0. 9.
        6     2     1     2   103     0  1.8262843574e+01 -1.1793296514e+02 -2.9129311971e+02  3.5764169867e+02  1.6974742212e+02  2.526311e-14 9.
       -6     2     1     2     0   102 -1.8262843574e+01  1.1793296514e+02  8.7833645319e+01  2.2554714281e+02  1.7004425499e+02  4.796491e-13 9.
       24     2     3     0     0     0 -4.6729830147e+01 -6.6691780872e+01 -1.1374257559e+02  1.6169032123e+02  8.1085854605e+01  8.174737e-14 9.
        5     1     3     0   103     0  6.4992673721e+01 -5.1241184266e+01 -1.7755054412e+02  1.9595137743e+02  4.8000000000e+00 0. 9.
      -24     2     4     0     0     0 -2.6892394201e+01  4.5754776929e+00  6.8212350048e+01  1.1008102513e+02  8.1980311856e+01  2.763397e-14 9.
       -5     1     4     0     0   102  8.6295506263e+00  1.1335748745e+02  1.9621295271e+01  1.1546611768e+02  4.8000000000e+00 0. 9.
       -3     1     5     0     0   104  2.0925825980e+01 -1.0638196022e+01 -4.2547047677e+01  4.8595912108e+01  5.0000000000e-01 0. 9.
        4     1     5     0   104     0 -6.7655656127e+01 -5.6053584850e+01 -7.1195527912e+01  1.1309440912e+02  1.5000000000e+00 0. 9.
       15     1     7     0     0     0  2.4359913981e+01  8.3559261215e+00  4.8683329645e+01  5.5103997905e+01  1.7768200000e+00  2.159225e-01 9.
      -16     1     7     0     0     0 -5.1252308182e+01 -3.7804484286e+00  1.9529020403e+01  5.4977027222e+01  0.0000000000e+00 0. 9.
#pdf   21   21  2.920995e-02  6.051141e-02  2.074992e+02  3.269781e+00  1.531260e+00
</event>
<event>
    12  9999  1.000000e+00  3.408839e+02  7.936132e-03  9.931407e-02
       21    -1     0     0   101   102  0.0000000000e+00  0.0000000000e+00  2.4216360108e+02  2.4216360108e+02  0.0000000000e+00 0. 9.
       21    -1     0     0   103   101  0.0000000000e+00  0.0000000000e+00 -5.2707161415e+02  5.2707161415e+02  0.0000000000e+00 0. 9.
        6     2     1     2   103     0  8.0825160039e+01 -2.8352371278e+02 -2.7359180439e+01  3.4206051192e+02  1.7128475372e+02  3.289774e-13 9.
       -6     2     1     2     0   102 -8.0825160039e+01  2.8352371278e+02 -2.5754883263e+02  4.2717470331e+02  1.7096322340e+02  1.892503e-14 9.
       24     2     3     0     0     0  2.9764199444e+01 -1.7452150453e+02 -8.2744622885e+01  2.0947359576e+02  7.5424476096e+01  9.988435e-14 9.
        5     1     3     0   103     0  5.1060960595e+01 -1.0900220825e+02  5.5385442447e+01  1.3258691615e+02  4.8000000000e+00 0. 9.
      -24     2     4     0     0     0 -1.0192468892e+02  2.8699880592e+02 -2.2128533666e+02  3.8480316178e+02  7.9682597123e+01  1.310810e-13 9.
       -5     1     4     0     0   102  2.1099528884e+01 -3.4750931408e+00 -3.6263495970e+01  4.2371541528e+01  4.8000000000e+00 0. 9.
      -15     1     5     0     0     0 -6.4225775267e+00 -2.7761064867e+01 -4.5633886977e+01  5.3828755834e+01  1.7768200000e+00  2.683356e-02 9.
       16     1     5     0     0     0  3.6186776971e+01 -1.4676043966e+02 -3.7110735908e+01  1.5564483993e+02  0.0000000000e+00 0. 9.
       13     1     7     0     0     0 -7.2670939906e+01  1.2300904650e+02 -6.7195964645e+01  1.5788476765e+02  1.0566000000e-01  1.694396e+05 9.
      -14     1     7     0     0     0 -2.9253749017e+01  1.6398975941e+02 -1.5408937202e+02  2.2691839413e+02  0.0000000000e+00 0. 9.
#pdf   21   21  3.725594e-02  8.108794e-02  3.408032e+02  2.516286e+00  1.027076e+00
</event>
<event>
    12  9999  1.000000e+00  6.406614e+02  7.994175e-03  9.266658e-02
       -2    -1     0     0     0   101  0.0000000000e+00  0.0000000000e+00  7.7637114844e+02  7.7637114844e+02  0.0000000000e+00 0. 9.
        2    -1     0     0   102     0  0.0000000000e+00  0.0000000000e+00 -5.5777531586e+02  5.5777531586e+02  0.0000000000e+00 0. 9.
       -6     2     1     2     0   101  6.1753380815e+02 -2.8581084723e+01  2.6157602408e+02  6.9147937676e+02  1.6600249850e+02  5.926322e-15 9.
        6     2     1     2   102     0 -6.1753380815e+02  2.8581084723e+01 -4.2980191500e+01  6.4266708754e+02  1.7031971682e+02  1.922022e-13 9.
      -24     2     3     0     0     0  5.3708156063e+02 -5.1814428673e+00  1.7421608634e+02  5.7033934997e+02  8.0326080848e+01  6.162714e-14 9.
       -5     1     3     0     0   101  8.0452247516e+01 -2.3399641856e+01  8.7359937743e+01  1.2114002680e+02  4.8000000000e+00 0. 9.
       24     2     4     0     0     0 -3.2670476324e+02 -3.5123753939e+01 -6.3293359536e+01  3.4421189053e+02  8.0660373182e+01  4.386872e-14 9.
        5     1     4     0   102     0 -2.9082904490e+02  6.3704838662e+01  2.0313168036e+01  2.9845519701e+02  4.8000000000e+00 0. 9.
        3     1     5     0   103     0  5.8406392877e+01 -9.9764823469e-01 -6.2617712827e+00  5.8751696235e+01  5.0000000000e-01 0. 9.
       -4     1     5     0     0   103  4.7867516775e+02 -4.1837946326e+00  1.8047785762e+02  5.1158765373e+02  1.5000000000e+00 0. 9.
      -15     1     7     0     0     0 -1.8906509300e+02 -5.3808620564e+01 -1.4994699381e+01  1.9715216239e+02  1.7768200000e+00  1.713880e-02 9.
       16     1     7     0     0     0 -1.3763967025e+02  1.8684866624e+01 -4.8298660155e+01  1.4705972814e+02  0.0000000000e+00 0. 9.
#pdf   -2    2  1.194417e-01  8.581159e-02  6.400951e+02  5.279315e-02  5.772430e-01
</event>
<event>
    12  9999  1.000000e+00  2.047819e+02  7.889865e-03  1.054328e-01
       21    -1     0     0   101   102  0.0000000000e+00  0.0000000000e+00  3.7335015717e+02  3.7335015717e+02  0.0000000000e+00 0. 9.
       21    -1     0     0   103   101  0.0000000000e+00  0.0000000000e+00 -2.1304982358e+02  2.1304982358e+02  0.0000000000e+00 0. 9.
        6     2     1     2   103     0 -2.2330217211e+01 -1.0988325498e+02 -1.2141822646e+02  2.3821537625e+02  1.7155527225e+02  1.336940e-13 9.
       -6     2     1     2     0   102  2.2330217211e+01  1.0988325498e+02  2.8171856005e+02  3.4818460450e+02  1.7115549483e+02  2.774838e-13 9.
       24     2     3     0     0     0  5.0608784235e+01 -4.8468412339e+01 -4.4174507362e+01  1.1540856467e+02  8.0357411995e+01  1.069510e-13 9.
        5     1     3     0   103     0 -7.2939001445e+01 -6.1414842640e+01 -7.7243719102e+01  1.2280681157e+02  4.8000000000e+00 0. 9.
      -24     2     4     0     0     0  2.7418493250e+01  6.4140723150e+01  2.8235193745e+02  3.0190598160e+02  8.0986412458e+01  1.510329e-14 9.
       -5     1     4     0     0   102 -5.0882760395e+00  4.5742531829e+01 -6.3337739859e-01  4.6278622906e+01  4.8000000000e+00 0. 9.
       -1     1     5     0     0   104 -2.1705800496e+01 -1.6654790415e+01 -7.9277720578e+00  2.8486528197e+01  3.3000000000e-01 0. 9.
        2     1     5     0   104     0  7.2314584730e+01 -3.1813621925e+01 -3.6246735304e+01  8.6922036474e+01  3.3000000000e-01 0. 9.
        1     1     7     0   105     0  3.4938728592e+01  8.1113240831e+01  2.3362654518e+02  2.4976297585e+02  3.3000000000e-01 0. 9.
       -2     1     7     0     0   105 -7.5202353422e+00 -1.6972517681e+01  4.8725392272e+01  5.2143005745e+01  3.3000000000e-01 0. 9.
#pdf   21   21  5.743849e-02  3.277690e-02  2.046147e+02  1.627069e+00  2.929326e+00
</event>
<event>
    12  9999  1.000000e+00  1.732973e+02  7.874825e-03  1.076070e-01
       21    -1     0     0   101   102  0.0000000000e+00  0.0000000000e+00  1.5911363556e+01  1.5911363556e+01  0.0000000000e+00 0. 9.
       21    -1     0     0   102   103  0.0000000000e+00  0.0000000000e+00 -1.9920614748e+03  1.9920614748e+03  0.0000000000e+00 0. 9.
        6     2     1     2   101     0  2.3322614137e+01  7.1886585246e+00 -1.2053657335e+03  1.2174373419e+03  1.6926756631e+02  1.797327e-13 9.
       -6     2     1     2     0   103 -2.3322614137e+01 -7.1886585246e+00 -7.7078437781e+02  7.9053549645e+02  1.7390282609e+02  3.783026e-13 9.
       24     2     3     0     0     0  4.7535792837e+01  5.9562673815e+01 -6.9029460963e+02  6.9912216938e+02  8.0360412651e+01  5.838965e-14 9.
        5     1     3     0   101     0 -2.4213178700e+01 -5.2374015291e+01 -5.1507112383e+02  5.1831517256e+02  4.8000000000e+00 0. 9.
      -24     2     4     0     0     0 -4.3504416791e+00 -6.6460444104e+00 -1.5251190695e+02  1.7195314463e+02  7.9024717249e+01  9.064424e-15 9.
       -5     1     4     0     0   103 -1.8972172458e+01 -5.4261411419e-01 -6.1827247086e+02  6.1858235182e+02  4.8000000000e+00 0. 9.
       -1     1     5     0     0   104  2.3219384384e+01  4.8885019713e+01 -1.7578720428e+02  1.8392970139e+02  3.3000000000e-01 0. 9.
        2     1     5     0   104     0  2.4316408453e+01  1.0677654102e+01 -5.1450740535e+02  5.1519246799e+02  3.3000000000e-01 0. 9.
       15     1     7     0     0     0 -2.1391904262e+01 -3.8050606092e+01 -8.4839424830e+01  9.5427183164e+01  1.7768200000e+00  7.443650e-02 9.
      -16     1     7     0     0     0  1.7041462583e+01  3.1404561682e+01 -6.7672482121e+01  7.6525961462e+01  0.0000000000e+00 0. 9.
#pdf   21   21  2.447902e-03  3.064710e-01  1.710179e+02  2.147767e+01  9.897261e-02
</event>
<event>
    12  9999  1.000000e+00  1.738377e+02  7.875105e-03  1.075656e-01
       21    -1     0     0   101   102  0.0000000000e+00  0.0000000000e+00  6.5211127793e+02  6.5211127793e+02  0.0000000000e+00 0. 9.
       21    -1     0     0   102   103  0.0000000000e+00  0.0000000000e+00 -5.0580190871e+01  5.0580190871e+01  0.0000000000e+00 0. 9.
        6     2     1     2   101     0 -2.9049952427e+01 -9.2703853604e+00  4.0287587058e+02  4.3888008433e+02  1.7139697065e+02  6.947946e-14 9.
       -6     2     1     2     0   103  2.9049952427e+01  9.2703853604e+00  1.9865521648e+02  2.6381138447e+02  1.7088800941e+02  3.065719e-14 9.
       24     2     3     0     0     0  4.4973797960e-01 -2.5947624502e+01  3.9521800465e+02  4.0380808767e+02  7.8677944699e+01  6.615117e-14 9.
        5     1     3     0   101     0 -2.9499690406e+01  1.6677239142e+01  7.6578659265e+00  3.5071996664e+01  4.8000000000e+00 0. 9.
      -24     2     4     0     0     0  8.1551114296e+01  1.2913258389e+01  1.5984839904e+02  1.9824728148e+02  8.3265463739e+01  1.871393e-14 9.
       -5     1     4     0     0   103 -5.2501161869e+01 -3.6428730288e+00  3.8806817438e+01  6.5564102992e+01  4.8000000000e+00 0. 9.
       -1     1     5     0     0   104 -9.7655431915e+00  2.5088525483e+01  1.9862554886e+02  2.0044205523e+02  3.3000000000e-01 0. 9.
        2     1     5     0   104     0  1.0215281171e+01 -5.1036149985e+01  1.9659245579e+02  2.0336603244e+02  3.3000000000e-01 0. 9.
        3     1     7     0   105     0  8.6272678919e+01  3.6024284014e+01  1.2369011255e+02  1.5504908291e+02  5.0000000000e-01 0. 9.
       -4     1     7     0     0   105 -4.7215646238e+00 -2.3111025625e+01  3.6158286487e+01  4.3198198570e+01  1.5000000000e+00 0. 9.
#pdf   21   21  1.003248e-01  7.781568e-03  1.735873e+02  8.261567e-01  9.773331e+00
</event>
<event>
    12  9999  1.000000e+00  3.110232e+02  7.927769e-03  1.003612e-01
       21    -1     0     0   101   102  0.0000000000e+00  0.0000000000e+00  1.3703156858e+03  1.3703156858e+03  0.0000000000e+00 0. 9.
       21    -1     0     0   103   101  0.0000000000e+00  0.0000000000e+00 -1.1724683829e+03  1.1724683829e+03  0.0000000000e+00 0. 9.
        6     2     1     2   103     0  1.3760764959e+02  2.2095075860e+02 -1.1336042360e+03  1.1754299303e+03  1.6977000346e+02  4.544246e-13 9.
       -6     2     1     2     0   102 -1.3760764959e+02 -2.2095075860e+02  1.3314515390e+03  1.3673541384e+03  1.7070159987e+02  8.116427e-14 9.
       24     2     3     0     0     0  1.1555499957e+02  7.0503925807e+01 -5.5065705099e+02  5.7295915968e+02  8.2068565080e+01  2.134639e-14 9.
        5     1     3     0   103     0  2.2052650019e+01  1.5044683279e+02 -5.8294718505e+02  6.0247077060e+02  4.8000000000e+00 0. 9.
      -24     2     4     0     0     0 -2.7652315398e+01 -3.0701457408e+01  3.2575876970e+02  3.3792421932e+02  7.9792054309e+01  2.434332e-13 9.
       -5     1     4     0     0   102 -1.0995533419e+02 -1.9024930119e+02  1.0056927693e+03  1.0294299191e+03  4.8000000000e+00 0. 9.
       -1     1     5     0     0   104  3.8075773349e+01  6.6686828692e+01 -3.3747584302e+02  3.4610251539e+02  3.3000000000e-01 0. 9.
        2     1     5     0   104     0  7.7479226221e+01  3.8170971151e+00 -2.1318120797e+02  2.2685664428e+02  3.3000000000e-01 0. 9.
        3     1     7     0   105     0  2.5806714010e+01 -1.4144396433e+01  6.7024753493e+01  7.3202582053e+01  5.0000000000e-01 0. 9.
       -4     1     7     0     0   105 -5.3459029407e+01 -1.6557060976e+01  2.5873401621e+02  2.6472163727e+02  1.5000000000e+00 0. 9.
#pdf   21   21  2.108178e-01  1.803798e-01  3.107683e+02  2.217991e-01  3.024235e-01
</event>
<event>
    12  9999  1.000000e+00  1.820535e+02  7.879260e-03  1.069556e-01
       21    -1     0     0   101   102  0.0000000000e+00  0.0000000000e+00  2.6579568927e+02  2.6579568927e+02  0.0000000000e+00 0. 9.
       21    -1     0     0   102   103  0.0000000000e+00  0.0000000000e+00 -9.2740224504e+02  9.2740224504e+02  0.0000000000e+00 0. 9.
        6     2     1     2   101     0  2.8271424541e+01 -5.3322434262e+01  2.2432250003e+02  2.8868855493e+02  1.7139994832e+02  2.098487e-13 9.
       -6     2     1     2     0   103 -2.8271424541e+01  5.3322434262e+01 -8.8592905581e+02  9.0450937938e+02  1.7211731471e+02  6.672945e-14 9.
       24     2     3     0     0     0 -2.7196756442e+00 -5.6007430896e+01  2.3794942073e+02  2.5439000590e+02  7.0357084421e+01  4.007625e-15 9.
        5     1     3     0   101     0  3.0991100185e+01  2.6849966331e+00 -1.3626920695e+01  3.4298549025e+01  4.8000000000e+00 0. 9.
      -24     2     4     0     0     0  3.5063663961e+01  7.4253253561e+01 -6.1559638075e+02  6.2602737307e+02  7.8793157400e+01  5.054456e-14 9.
       -5     1     4     0     0   103 -6.3335088501e+01 -2.0930819299e+01 -2.7033267506e+02  2.7848200631e+02  4.8000000000e+00 0. 9.
      -11     1     5     0     0     0 -1.0236812212e+01 -3.3239639379e-01  3.5976084567e-01  1.0248523784e+01  5.1100000000e-04 0. 9.
       12     1     5     0     0     0  7.5171365679e+00 -5.5675034502e+01  2.3758965988e+02  2.4414148212e+02  0.0000000000e+00 0. 9.
        3     1     7     0   104     0  6.0332330719e+01  5.3260626480e+01 -4.1106668205e+02  4.1887080533e+02  5.0000000000e-01 0. 9.
       -4     1     7     0     0   104 -2.5268666758e+01  2.0992627081e+01 -2.0452969870e+02  2.0715656775e+02  1.5000000000e+00 0. 9.
#pdf   21   21  4.089164e-02  1.426773e-01  1.817154e+02  2.362690e+00  4.899832e-01
</event>
<event>
    12  9999  1.000000e+00  2.069593e+02  7.890819e-03  1.052981e-01
       21    -1     0     0   101   102  0.0000000000e+00  0.0000000000e+00  3.3973269637e+02  3.3973269637e+02  0.0000000000e+00 0. 9.
       21    -1     0     0   103   101  0.0000000000e+00  0.0000000000e+00 -1.2635338176e+02  1.2635338176e+02  0.0000000000e+00 0. 9.
        6     2     1     2   103     0 -4.3788780870e+01 -1.0710427006e+02  9.5898452241e+01  2.2831430617e+02  1.7187823384e+02  6.007119e-13 9.
       -6     2     1     2     0   102  4.3788780870e+01  1.0710427006e+02  1.1748086236e+02  2.3777177196e+02  1.7130347493e+02  1.544514e-13 9.
       24     2     3     0     0     0 -4.5031579161e+01 -1.4219197797e+02  6.6771629050e+01  1.8244379687e+02  8.1122665452e+01  4.136563e-14 9.
        5     1     3     0   103     0  1.2427982913e+00  3.5087707914e+01  2.9126823191e+01  4.5870509300e+01  4.8000000000e+00 0. 9.
      -24     2     4     0     0     0  7.7747708924e+01  1.1833034536e+02  1.1891170928e+02  2.0165638903e+02  8.0489302113e+01  3.975634e-14 9.
       -5     1     4     0     0   102 -3.3958928054e+01 -1.1226075303e+01 -1.4308469193e+00  3.6115382930e+01  4.8000000000e+00 0. 9.
       -3     1     5     0     0   104 -2.5060574851e+01 -8.4833890558e+01 -4.7678765783e+00  8.8587832382e+01  5.0000000000e-01 0. 9.
        4     1     5     0   104     0 -1.9971004310e+01 -5.7358087415e+01  7.1539505629e+01  9.3855964491e+01  1.5000000000e+00 0. 9.
       11     1     7     0     0     0 -1.3569305257e+01  3.2984783951e+01  1.3452220911e+01  3.8119342402e+01  5.1100000000e-04 0. 9.
      -12     1     7     0     0     0  9.1317014181e+01  8.5345561411e+01  1.0545948837e+02  1.6353704663e+02  0.0000000000e+00 0. 9.
#pdf   21   21  5.226657e-02  1.943898e-02  2.067212e+02  1.806819e+00  4.725879e+00
</event>
<event>
    12  9999  1.000000e+00  2.092455e+02  7.891811e-03  1.051585e-01
       21    -1     0     0   101   102  0.0000000000e+00  0.0000000000e+00  7.1351814611e+01  7.1351814611e+01  0.0000000000e+00 0. 9.
       21    -1     0     0   102   103  0.0000000000e+00  0.0000000000e+00 -6.3419534441e+02  6.3419534441e+02  0.0000000000e+00 0. 9.
        6     2     1     2   101     0 -4.2718458171e+01  1.0729454872e+02 -2.2121520747e+02  3.0619581344e+02  1.7743370960e+02  1.292738e-13 9.
       -6     2     1     2     0   103  4.2718458171e+01 -1.0729454872e+02 -3.4162832233e+02  3.9935134557e+02  1.7156514722e+02  2.007315e-14 9.
       24     2     3     0     0     0 -8.0558225473e+01  8.2111821252e+01 -2.1898890283e+02  2.6043541370e+02  8.1476906330e+01  3.595240e-14 9.
        5     1     3     0   101     0  3.7839767301e+01  2.5182727470e+01 -2.2263046330e+00  4.5760399742e+01  4.8000000000e+00 0. 9.
      -24     2     4     0     0     0  1.9009581249e+01 -1.4154058136e+02 -2.7553886839e+02  3.2108412690e+02  8.2330117248e+01  1.417545e-13 9.
       -5     1     4     0     0   103  2.3708876922e+01  3.4246032638e+01 -6.6089453938e+01  7.8267218669e+01  4.8000000000e+00 0. 9.
       -1     1     5     0     0   104 -2.3423005433e+00  5.7918979517e+01 -7.4908979047e+01  9.4718311862e+01  3.3000000000e-01 0. 9.
        2     1     5     0   104     0 -7.8215924929e+01  2.4192841735e+01 -1.4407992379e+02  1.6571710184e+02  3.3000000000e-01 0. 9.
        1     1     7     0   105     0 -2.4275146934e+01 -7.2816491549e+01 -8.8358898862e+01  1.1704242012e+02  3.3000000000e-01 0. 9.
       -2     1     7     0     0   105  4.3284728183e+01 -6.8724089810e+01 -1.8717996953e+02  2.0404170678e+02  3.3000000000e-01 0. 9.
#pdf   21   21  1.097720e-02  9.756851e-02  2.068129e+02  7.554608e+00  8.427612e-01
</event>
<event>
    12  9999  1.000000e+00  2.041832e+02  7.889600e-03  1.054702e-01
       -1    -1     0     0     0   101  0.0000000000e+00  0.0000000000e+00  1.2210808974e+03  1.2210808974e+03  0.0000000000e+00 0. 9.
        1    -1     0     0   102     0  0.0000000000e+00  0.0000000000e+00 -3.6264986972e+01  3.6264986972e+01  0.0000000000e+00 0. 9.
       -6     2     1     2     0   101  9.3926477864e+01 -6.1117277181e+01  7.4592180104e+02  7.7350167694e+02  1.7131259774e+02  1.091877e-13 9.
        6     2     1     2   102     0 -9.3926477864e+01  6.1117277181e+01  4.3889410943e+02  4.8384420748e+02  1.7005785193e+02  1.947982e-13 9.
      -24     2     3     0     0     0  1.1966958736e+02 -8.4801960549e+01  6.5328831811e+02  6.7436705094e+02  8.0455640907e+01  1.157492e-14 9.
       -5     1     3     0     0   101 -2.5743109500e+01  2.3684683368e+01  9.2633482929e+01  9.9134626002e+01  4.8000000000e+00 0. 9.
       24     2     4     0     0     0 -1.0040218604e+02  1.8435559915e+00  3.7485299196e+02  3.9621080319e+02  7.9901422542e+01  3.993301e-14 9.
        5     1     4     0   102     0  6.4757081784e+00  5.9273721189e+01  6.4041117477e+01  8.7633404292e+01  4.8000000000e+00 0. 9.
       11     1     5     0     0     0  8.7441443666e+01 -9.8911670597e+01  5.2443106506e+02  5.4079336780e+02  5.1100000000e-04 0. 9.
      -12     1     5     0     0     0  3.2228143697e+01  1.4109710047e+01  1.2885725305e+02  1.3357368314e+02  0.0000000000e+00 0. 9.
       -3     1     7     0     0   103 -2.1785342010e+00  2.1763735285e+01  3.0292479041e+01  3.7366970325e+01  5.0000000000e-01 0. 9.
        4     1     7     0   103     0 -9.8223651841e+01 -1.9920179293e+01  3.4456051291e+02  3.5884383286e+02  1.5000000000e+00 0. 9.
#pdf   -1    1  1.878586e-01  5.579229e-03  2.036595e+02  3.591784e-02  8.437744e-01
</event>
<event>
    12  9999  1.000000e+00  3.068544e+02  7.926539e-03  1.005172e-01
       21    -1     0     0   101   102  0.0000000000e+00  0.0000000000e+00  4.0155987140e+01  4.0155987140e+01  0.0000000000e+00 0. 9.
       21    -1     0     0   103   101  0.0000000000e+00  0.0000000000e+00 -2.4904762448e+03  2.4904762448e+03  0.0000000000e+00 0. 9.
        6     2     1     2   103     0  2.5454442692e+02  3.9579812271e+00 -9.1835600024e+02  9.6819504011e+02  1.7092501755e+02  1.370653e-13 9.
       -6     2     1     2     0   102 -2.5454442692e+02 -3.9579812271e+00 -1.5319642575e+03  1.5624371919e+03  1.7171767971e+02  5.020452e-13 9.
       24     2     3     0     0     0  1.3105801851e+02 -5.6064055836e+01 -5.8744475324e+02  6.0989791288e+02  8.1023104386e+01  2.504100e-14 9.
        5     1     3     0   103     0  1.2348640841e+02  6.0022037063e+01 -3.3091124700e+02  3.5829712724e+02  4.8000000000e+00 0. 9.
      -24     2     4     0     0     0 -1.2650210643e+02  1.1633399815e+01 -4.9111280837e+02  5.1361275181e+02  8.0424805598e+01  2.906893e-14 9.
       -5     1     4     0     0   102 -1.2804232048e+02 -1.5591381042e+01 -1.0408514491e+03  1.0488244401e+03  4.8000000000e+00 0. 9.
       -3     1     5     0     0   104  3.1638498351e+00  4.0246971574e+00  5.3809190777e-01  5.1718155312e+00  5.0000000000e-01 0. 9.
        4     1     5     0   104     0  1.2789416867e+02 -6.0088752993e+01 -5.8798284515e+02  6.0472609734e+02  1.5000000000e+00 0. 9.
       13     1     7     0     0     0 -1.3582357423e+02  8.6736916435e-01 -4.5307590068e+02  4.7299744036e+02  1.0566000000e-01  4.644331e+05 9.
      -14     1     7     0     0     0  9.3214677942e+00  1.0766030650e+01 -3.8036907686e+01  4.0615311450e+01  0.0000000000e+00 0. 9.
#pdf   21   21  6.177844e-03  3.831502e-01  3.066332e+02  1.172650e+01  3.683835e-02
</event>
<event>
    12  9999  1.000000e+00  3.078176e+02  7.926825e-03  1.004809e-01
       -2    -1     0     0     0   101  0.0000000000e+00  0.0000000000e+00  9.9123270688e+01  9.9123270688e+01  0.0000000000e+00 0. 9.
        2    -1     0     0   102     0  0.0000000000e+00  0.0000000000e+00 -1.1150443705e+03  1.1150443705e+03  0.0000000000e+00 0. 9.
       -6     2     1     2     0   101 -2.5264437653e+02 -4.3437077941e+01 -7.3813379885e+02  7.9997043333e+02  1.7145036736e+02  1.781948e-13 9.
        6     2     1     2   102     0  2.5264437653e+02  4.3437077941e+01 -2.7778730098e+02  4.1419720787e+02  1.6934456500e+02  3.749428e-14 9.
      -24     2     3     0     0     0 -1.7368559668e+02 -8.5632861256e+01 -4.2414182078e+02  4.7342950889e+02  8.2094715597e+01  1.708844e-13 9.
       -5     1     3     0     0   101 -7.8958779847e+01  4.2195783315e+01 -3.1399197807e+02  3.2654092445e+02  4.8000000000e+00 0. 9.
       24     2     4     0     0     0  9.9801889470e+01 -3.8991234406e+01 -1.2009089322e+02  1.7957741002e+02  7.9658584299e+01  7.979198e-14 9.
        5     1     4     0   102     0  1.5284248706e+02  8.2428312347e+01 -1.5769640775e+02  2.3461979785e+02  4.8000000000e+00 0. 9.
        1     1     5     0   103     0 -5.3721163384e+01 -4.0109192772e+01 -2.3861227826e+02  2.4785205058e+02  3.3000000000e-01 0. 9.
       -2     1     5     0     0   103 -1.1996443329e+02 -4.5523668484e+01 -1.8552954252e+02  2.2557745830e+02  3.3000000000e-01 0. 9.
       -3     1     7     0     0   104  1.0811324888e+02 -4.8117466734e+01 -9.5671442593e+01  1.5217437404e+02  5.0000000000e-01 0. 9.
        4     1     7     0   104     0 -8.3113594075e+00  9.1262323286e+00 -2.4419450629e+01  2.7403035977e+01  1.5000000000e+00 0. 9.
#pdf   -2    2  1.524973e-02  1.715453e-01  3.072353e+02  4.087360e-01  4.774290e-01
</event>
<event>
    12  9999  1.000000e+00  1.932818e+02  7.884651e-03  1.061754e-01
       21    -1     0     0   101   102  0.0000000000e+00  0.0000000000e+00  3.4006986778e+02  3.4006986778e+02  0.0000000000e+00 0. 9.
       21    -1     0     0   102   103  0.0000000000e+00  0.0000000000e+00 -1.0986392940e+02  1.0986392940e+02  0.0000000000e+00 0. 9.
        6     2     1     2   101     0 -8.3062560316e+01 -1.9333721227e+01  1.1488320712e+02  2.2335283277e+02  1.7150846896e+02  1.292250e-13 9.
       -6     2     1     2     0   103  8.3062560316e+01  1.9333721227e+01  1.1532273126e+02  2.2658096441e+02  1.7540359001e+02  4.473122e-13 9.
       24     2     3     0     0     0 -1.7232831032e+01 -6.3001608520e+01  2.9360836703e+01  1.0683007328e+02  7.9274413798e+01  1.650995e-15 9.
        5     1     3     0   101     0 -6.5829729284e+01  4.3667887293e+01  8.5522370420e+01  1.1652275950e+02  4.8000000000e+00 0. 9.
      -24     2     4     0     0     0  6.6739741205e+01  7.6093679944e+01  1.0334915078e+02  1.6612822282e+02  8.1689033936e+01  2.564073e-15 9.
       -5     1     4     0     0   103  1.6322819111e+01 -5.6759958717e+01  1.1973580476e+01  6.0452741598e+01  4.8000000000e+00 0. 9.
       -3     1     5     0     0   104 -2.5535326708e+01  4.7452167689e-01  3.4115767756e+01  4.2619405094e+01  5.0000000000e-01 0. 9.
        4     1     5     0   104     0  8.3024956768e+00 -6.3476130197e+01 -4.7549310536e+00  6.4210668183e+01  1.5000000000e+00 0. 9.
        3     1     7     0   105     0 -6.4698427624e+00  3.3610298392e+01  2.3061679910e+00  3.4308591259e+01  5.0000000000e-01 0. 9.
       -4     1     7     0     0   105  7.3209583967e+01  4.2483381552e+01  1.0104298279e+02  1.3181963156e+02  1.5000000000e+00 0. 9.
#pdf   21   21  5.231844e-02  1.690214e-02  1.915420e+02  1.813932e+00  5.329753e+00
</event>
<event>
    12  9999  1.000000e+00  2.439225e+02  7.905684e-03  1.032484e-01
       21    -1     0     0   101   102  0.0000000000e+00  0.0000000000e+00  4.6218307090e+02  4.6218307090e+02  0.0000000000e+00 0. 9.
       21    -1     0     0   102   103  0.0000000000e+00  0.0000000000e+00 -2.4233262967e+02  2.4233262967e+02  0.0000000000e+00 0. 9.
        6     2     1     2   101     0 -1.6185324823e+02 -6.5478843455e+01  3.5085456874e+02  4.2672429191e+02  1.6885123631e+02  5.054985e-14 9.
       -6     2     1     2     0   103  1.6185324823e+02  6.5478843455e+01 -1.3100412751e+02  2.7779140866e+02  1.7181976720e+02  1.381253e-13 9.
       24     2     3     0     0     0 -3.7574332292e+01 -2.0533890325e+01  2.3339073483e+02  2.4984554804e+02  7.8218231070e+01  4.660177e-15 9.
        5     1     3     0   101     0 -1.2427891594e+02 -4.4944953130e+01  1.1746383390e+02  1.7687874387e+02  4.8000000000e+00 0. 9.
      -24     2     4     0     0     0  1.1296725388e+02  9.6587413625e+01 -4.6936514333e+01  1.7557601273e+02  8.0828033183e+01  1.187847e-14 9.
       -5     1     4     0     0   103  4.8885994347e+01 -3.1108570170e+01 -8.4067613173e+01  1.0221539593e+02  4.8000000000e+00 0. 9.
      -11     1     5     0     0     0 -4.5673904658e+01 -7.0782057394e+00  2.2888742405e+02  2.3350730064e+02  5.1100000000e-04 0. 9.
       12     1     5     0     0     0  8.0995723665e+00 -1.3455684586e+01  4.5033107823e+00  1.6338247403e+01  0.0000000000e+00 0. 9.
        3     1     7     0   104     0  2.3079266955e+01  5.1499678595e+00  1.9956844473e+01  3.0946734455e+01  5.0000000000e-01 0. 9.
       -4     1     7     0     0   104  8.9887986925e+01  9.1437445765e+01 -6.6893358806e+01  1.4462927827e+02  1.5000000000e+00 0. 9.
#pdf   21   21  7.110509e-02  3.728194e-02  2.428882e+02  1.248260e+00  2.557354e+00
</event>
<event>
    12  9999  1.000000e+00  2.192943e+02  7.896050e-03  1.045666e-01
       21    -1     0     0   101   102  0.0000000000e+00  0.0000000000e+00  1.5815213946e+02  1.5815213946e+02  0.0000000000e+00 0. 9.
       21    -1     0     0   103   101  0.0000000000e+00  0.0000000000e+00 -5.3747416816e+02  5.3747416816e+02  0.0000000000e+00 0. 9.
        6     2     1     2   103     0  1.8486251177e-01 -1.3583712825e+02 -4.1845177142e+02  4.7204640704e+02  1.7109694857e+02  4.532915e-14 9.
       -6     2     1     2     0   102 -1.8486251177e-01  1.3583712825e+02  3.9129742719e+01  2.2357990058e+02  1.7321973211e+02  1.287587e-13 9.
       24     2     3     0     0     0  5.6636764310e+01 -9.8481937384e+01 -2.0265316762e+02  2.4582902286e+02  8.0356624331e+01  3.688442e-14 9.
        5     1     3     0   103     0 -5.6451901798e+01 -3.7355190866e+01 -2.1579860380e+02  2.2621738418e+02  4.8000000000e+00 0. 9.
      -24     2     4     0     0     0  2.6115116197e+01  8.1018281617e+01  8.6652396366e+01  1.4626083801e+02  8.1471674160e+01  9.004596e-14 9.
       -5     1     4     0     0   102 -2.6299978709e+01  5.4818846632e+01 -4.7522653647e+01  7.7319062564e+01  4.8000000000e+00 0. 9.
       -3     1     5     0     0   104  5.0856517322e+01 -1.2465431640e+01 -6.6036358241e+01  8.4278247192e+01  5.0000000000e-01 0. 9.
        4     1     5     0   104     0  5.7802469883e+00 -8.6016505744e+01 -1.3661680938e+02  1.6155077567e+02  1.5000000000e+00 0. 9.
        3     1     7     0   105     0  4.7003069575e+01  8.2159261935e+01  8.0890702030e+01  1.2451099769e+02  5.0000000000e-01 0. 9.
       -4     1     7     0     0   105 -2.0887953378e+01 -1.1409803176e+00  5.7616943355e+00  2.1749840322e+01  1.5000000000e+00 0. 9.
#pdf   21   21  2.433110e-02  8.268833e-02  2.184626e+02  3.866990e+00  1.042930e+00
</event>
<event>
    12  9999  1.000000e+00  2.445535e+02  7.905918e-03  1.032168e-01
       21    -1     0     0   101   102  0.0000000000e+00  0.0000000000e+00  4.6923243240e+02  4.6923243240e+02  0.0000000000e+00 0. 9.
       21    -1     0     0   103   101  0.0000000000e+00  0.0000000000e+00 -1.4570205691e+02  1.4570205691e+02  0.0000000000e+00 0. 9.
        6     2     1     2   103     0 -9.0381951034e+01 -1.4983175599e+02  2.7068762953e+02  3.6493421768e+02  1.7113368539e+02  1.996144e-13 9.
       -6     2     1     2     0   102  9.0381951034e+01  1.4983175599e+02  5.2842745967e+01  2.5000027163e+02  1.7055593756e+02  3.513656e-14 9.
       24     2     3     0     0     0 -7.6137172539e+01 -6.3586926213e+01  7.6977844966e+01  1.5236045398e+02  8.6301524280e+01  3.653185e-14 9.
        5     1     3     0   103     0 -1.4244778495e+01 -8.6244829779e+01  1.9370978456e+02  2.1257376370e+02  4.8000000000e+00 0. 9.
      -24     2     4     0     0     0  1.2594883020e+02  9.7377375395e+01  2.4112229347e+01  1.8025109585e+02  8.1016028550e+01  5.915816e-14 9.
       -5     1     4     0     0   102 -3.5566879165e+01  5.2454380597e+01  2.8730516620e+01  6.9749175785e+01  4.8000000000e+00 0. 9.
       -1     1     5     0     0   104  9.0021036692e+00 -1.4377731543e+01 -1.1157642936e+01  2.0306622828e+01  3.3000000000e-01 0. 9.
        2     1     5     0   104     0 -8.5139276208e+01 -4.9209194670e+01  8.8135487902e+01  1.3205383115e+02  3.3000000000e-01 0. 9.
        1     1     7     0   105     0  5.0992746785e+01  4.1517749109e+01 -2.9955804969e+01  7.2259552082e+01  3.3000000000e-01 0. 9.
       -2     1     7     0     0   105  7.4956083414e+01  5.5859626286e+01  5.4068034316e+01  1.0799154376e+02  3.3000000000e-01 0. 9.
#pdf   21   21  7.218960e-02  2.241570e-02  2.443518e+02  1.224657e+00  4.151258e+00
</event>
<event>
    12  9999  1.000000e+00  1.809046e+02  7.878690e-03  1.070388e-01
       21    -1     0     0   101   102  0.0000000000e+00  0.0000000000e+00  1.5873315452e+03  1.5873315452e+03  0.0000000000e+00 0. 9.
       21    -1     0     0   102   103  0.0000000000e+00  0.0000000000e+00 -1.1133663946e+02  1.1133663946e+02  0.0000000000e+00 0. 9.
        6     2     1     2   101     0  3.8582145848e+01  4.1465599515e+01  1.5047033635e+03  1.5155444847e+03  1.7185719453e+02  2.251383e-13 9.
       -6     2     1     2     0   103 -3.8582145848e+01 -4.1465599515e+01 -2.8708457701e+01  1.8312369993e+02  1.7176185843e+02  1.143119e-14 9.
       24     2     3     0     0     0 -3.4504193023e+01  1.7908232955e+01  4.9967707908e+02  5.0757750376e+02  8.0290066803e+01  4.598525e-15 9.
        5     1     3     0   101     0  7.3086338872e+01  2.3557366560e+01  1.0050262844e+03  1.0079669810e+03  4.8000000000e+00 0. 9.
      -24     2     4     0     0     0  1.8102289809e+01 -4.1073578435e+01 -6.6400622584e+01  1.1488135076e+02  8.2304011636e+01  4.424411e-14 9.
       -5     1     4     0     0   103 -5.6684435657e+01 -3.9202107964e-01  3.7692164883e+01  6.8242349167e+01  4.8000000000e+00 0. 9.
       -3     1     5     0     0   104 -1.7934309095e+01 -1.7346148653e+00  4.5954926463e+02  4.5990262551e+02  5.0000000000e-01 0. 9.
        4     1     5     0   104     0 -1.6569883929e+01  1.9642847820e+01  4.0127814448e+01  4.7674878251e+01  1.5000000000e+00 0. 9.
        1     1     7     0   105     0  4.6640255739e+01 -4.5077852567e+01 -4.7912983574e+01  8.0641733256e+01  3.3000000000e-01 0. 9.
       -2     1     7     0     0   105 -2.8537965931e+01  4.0042741315e+00 -1.8487639010e+01  3.4239617506e+01  3.3000000000e-01 0. 9.
#pdf   21   21  2.442049e-01  1.712871e-02  1.808594e+02  1.779870e-01  5.273209e+00
</event>
<event>
    12  9999  1.000000e+00  1.900463e+02  7.883130e-03  1.063943e-01
       21    -1     0     0   101   102  0.0000000000e+00  0.0000000000e+00  5.5051823498e+02  5.5051823498e+02  0.0000000000e+00 0. 9.
       21    -1     0     0   102   103  0.0000000000e+00  0.0000000000e+00 -6.5631054178e+01  6.5631054178e+01  0.0000000000e+00 0. 9.
        6     2     1     2   101     0  7.2954479425e+01 -4.4731082112e+01  2.4628882304e+02  3.1334576131e+02  1.7379342911e+02  1.195046e-13 9.
       -6     2     1     2     0   103 -7.2954479425e+01  4.4731082112e+01  2.3859835777e+02  3.0280352785e+02  1.6564291224e+02  1.761686e-13 9.
       24     2     3     0     0     0  1.1621637663e+02 -3.0587154177e+01  2.0978368402e+02  2.5480254973e+02  8.0456976522e+01  3.178404e-14 9.
        5     1     3     0   101     0 -4.3261897205e+01 -1.4143927935e+01  3.6505139012e+01  5.8543211574e+01  4.8000000000e+00 0. 9.
      -24     2     4     0     0     0 -7.9198986942e+01 -1.5901500282e+01  1.0031576001e+02  1.5160689837e+02  7.9975387993e+01  2.920281e-13 9.
       -5     1     4     0     0   103  6.2445075172e+00  6.0632582393e+01  1.3828259776e+02  1.5119662948e+02  4.8000000000e+00 0. 9.
       -3     1     5     0     0   104  7.0388127931e+01 -6.8671448786e+00  1.8394460348e+02  1.9707235570e+02  5.0000000000e-01 0. 9.
        4     1     5     0   104     0  4.5828248699e+01 -2.3720009298e+01  2.5839080547e+01  5.7730194036e+01  1.5000000000e+00 0. 9.
        3     1     7     0   105     0  1.4924663542e+01 -3.0762161731e+00  2.9173334786e+01  3.2917201435e+01  5.0000000000e-01 0. 9.
       -4     1     7     0     0   105 -9.4123650484e+01 -1.2825284109e+01  7.1142425220e+01  1.1868969694e+02  1.5000000000e+00 0. 9.
#pdf   21   21  8.469511e-02  1.009709e-02  1.864425e+02  1.026361e+00  8.051464e+00
</event>
<event>
    12  9999  1.000000e+00  2.622532e+02  7.912256e-03  1.023701e-01
       -3    -1     0     0     0   101  0.0000000000e+00  0.0000000000e+00  2.0615632841e+02  2.0615632841e+02  0.0000000000e+00 0. 9.
        3    -1     0     0   102     0  0.0000000000e+00  0.0000000000e+00 -3.4294581134e+02  3.4294581134e+02  0.0000000000e+00 0. 9.
       -6     2     1     2     0   101  1.5146798828e+02 -1.2979530388e+02 -2.2932549811e+01  2.6254505765e+02  1.6915860330e+02  1.735330e-13 9.
        6     2     1     2   102     0 -1.5146798828e+02  1.2979530388e+02 -1.1385693312e+02  2.8655708210e+02  1.7135398360e+02  2.035920e-13 9.
      -24     2     3     0     0     0  1.0817068467e+02 -1.5888556556e+02 -1.2637534826e+01  2.0916034861e+02  8.1503522513e+01  1.636191e-13 9.
       -5     1     3     0     0   101  4.3297303619e+01  2.9090261678e+01 -1.0295014985e+01  5.3384709034e+01  4.8000000000e+00 0. 9.
       24     2     4     0     0     0 -7.3285303704e+01  1.4604996689e+02 -9.3483431701e+01  2.0400488165e+02  7.8597144783e+01  7.923140e-14 9.
        5     1     4     0   102     0 -7.8182684581e+01 -1.6254663012e+01 -2.0373501415e+01  8.2552200442e+01  4.8000000000e+00 0. 9.
       15     1     5     0     0     0  4.8967977573e+01 -1.0525587801e+02  2.8152110108e+01  1.1946698739e+02  1.7768200000e+00  1.890479e-01 9.
      -16     1     5     0     0     0  5.9202707094e+01 -5.3629687545e+01 -4.0789644933e+01  8.9693361221e+01  0.0000000000e+00 0. 9.
       -3     1     7     0     0   103 -1.2296048500e+01  9.6446449003e+00  1.3151559262e+01  2.0430993490e+01  5.0000000000e-01 0. 9.
        4     1     7     0   103     0 -6.0989255204e+01  1.3640532199e+02 -1.0663499096e+02  1.8357388816e+02  1.5000000000e+00 0. 9.
#pdf   -3    3  3.171636e-02  5.276089e-02  2.615416e+02  1.536800e-01  9.428008e-02
</event>
<event>
    12  9999  1.000000e+00  2.868942e+02  7.920416e-03  1.013023e-01
       21    -1     0     0   101   102  0.0000000000e+00  0.0000000000e+00  1.0222643322e+02  1.0222643322e+02  0.0000000000e+00 0. 9.
       21    -1     0     0   102   103  0.0000000000e+00  0.0000000000e+00 -8.2593089275e+02  8.2593089275e+02  0.0000000000e+00 0. 9.
        6     2     1     2   101     0  2.2616117070e+02  1.8677658419e+00 -3.0507799493e+02  4.2703429327e+02  1.9527759975e+02  2.803906e-13 9.
       -6     2     1     2     0   103 -2.2616117070e+02 -1.8677658419e+00 -4.1862646461e+02  5.0112303269e+02  1.5723807854e+02  1.099064e-13 9.
       24     2     3     0     0     0  2.0504702349e+02 -3.4284119715e+00 -1.4105311383e+02  2.6150164293e+02  8.0194092564e+01  5.608132e-14 9.
        5     1     3     0   101     0  2.1114147207e+01  5.2961778134e+00 -1.6402488110e+02  1.6553265035e+02  4.8000000000e+00 0. 9.
      -24     2     4     0     0     0 -1.3570555745e+02 -5.4405243067e+01 -3.0714533563e+02  3.4817373848e+02  7.4234534906e+01  4.608966e-14 9.
       -5     1     4     0     0   103 -9.0455613250e+01  5.2537477225e+01 -1.1148112898e+02  1.5294929421e+02  4.8000000000e+00 0. 9.
       -3     1     5     0     0   104  7.4297357582e+00 -2.0125009443e+01 -9.2195040530e+00  2.3355218549e+01  5.0000000000e-01 0. 9.
        4     1     5     0   104     0  1.9761728773e+02  1.6696597471e+01 -1.3183360978e+02  2.3814642438e+02  1.5000000000e+00 0. 9.
        1     1     7     0   105     0 -9.7008023407e+00 -1.1874538006e+01 -2.2037098942e+00  1.5494368532e+01  3.3000000000e-01 0. 9.
       -2     1     7     0     0   105 -1.2600475511e+02 -4.2530705061e+01 -3.0494162574e+02  3.3267936995e+02  3.3000000000e-01 0. 9.
#pdf   21   21  1.572714e-02  1.270663e-01  2.754563e+02  5.637291e+00  5.567788e-01
</event>
<event>
    12  9999  1.000000e+00  2.281507e+02  7.899631e-03  1.040723e-01
       21    -1     0     0   101   102  0.0000000000e+00  0.0000000000e+00  1.6756492876e+03  1.6756492876e+03  0.0000000000e+00 0. 9.
       21    -1     0     0   102   103  0.0000000000e+00  0.0000000000e+00 -3.3063943374e+01  3.3063943374e+01  0.0000000000e+00 0. 9.
        6     2     1     2   101     0 -9.7412911981e+01  1.1461668561e+02  6.0971264152e+02  6.5084820868e+02  1.7096088874e+02  3.620695e-13 9.
       -6     2     1     2     0   103  9.7412911981e+01 -1.1461668561e+02  1.0328727027e+03  1.0578650223e+03  1.7212241385e+02  4.191080e-14 9.
       24     2     3     0     0     0 -1.1183088892e+02  1.2312617045e+02  3.9891641822e+02  4.3933372420e+02  7.8826460805e+01  2.096449e-13 9.
        5     1     3     0   101     0  1.4417976936e+01 -8.5094848446e+00  2.1079622330e+02  2.1151448449e+02  4.8000000000e+00 0. 9.
      -24     2     4     0     0     0  1.2748905852e+02 -1.1587254937e+02  9.6380751584e+02  9.8237203042e+02  8.0311710412e+01  8.821964e-15 9.
       -5     1     4     0     0   103 -3.0076146539e+01  1.2558637561e+00  6.9065186887e+01  7.5492991888e+01  4.8000000000e+00 0. 9.
       -3     1     5     0     0   104 -7.2524146012e+01  1.1213876611e+02  3.5535464893e+02  3.7962090450e+02  5.0000000000e-01 0. 9.
        4     1     5     0   104     0 -3.9306742905e+01  1.0987404341e+01  4.3561769295e+01  5.9712819696e+01  1.5000000000e+00 0. 9.
        1     1     7     0   105     0  3.8033820195e+00 -4.3786893907e+01  1.6058239087e+02  1.6648895144e+02  3.3000000000e-01 0. 9.
       -2     1     7     0     0   105  1.2368567650e+02 -7.2085655459e+01  8.0322512497e+02  8.1588307898e+02  3.3000000000e-01 0. 9.
#pdf   21   21  2.577922e-01  5.086761e-03  2.277145e+02  1.487770e-01  1.336840e+01
</event>
<event>
    12  9999  1.000000e+00  2.263330e+02  7.898907e-03  1.041718e-01
       21    -1     0     0   101   102  0.0000000000e+00  0.0000000000e+00  1.6067000092e+02  1.6067000092e+02  0.0000000000e+00 0. 9.
       21    -1     0     0   103   101  0.0000000000e+00  0.0000000000e+00 -3.2629138072e+02  3.2629138072e+02  0.0000000000e+00 0. 9.
        6     2     1     2   103     0  3.0020036161e+01 -1.4717896308e+02 -1.1931875529e+02  2.5512496737e+02  1.6819314453e+02  3.617133e-14 9.
       -6     2     1     2     0   102 -3.0020036161e+01  1.4717896308e+02 -4.6302624515e+01  2.3183641427e+02  1.7041519944e+02  1.888833e-13 9.
       24     2     3     0     0     0  4.2875984189e+01 -1.7642194833e+01 -7.3823673821e+01  1.1714709898e+02  7.8255421057e+01  9.815855e-14 9.
        5     1     3     0   103     0 -1.2855948028e+01 -1.2953676825e+02 -4.5495081465e+01  1.3797786839e+02  4.8000000000e+00 0. 9.
      -24     2     4     0     0     0 -1.8180196459e+01  6.5566298782e+01  1.0459203850e+01  1.3160790566e+02  1.1216856426e+02  1.274347e-14 9.
       -5     1     4     0     0   102 -1.1839839702e+01  8.1612664296e+01 -5.6761828365e+01  1.0022850860e+02  4.8000000000e+00 0. 9.
       -1     1     5     0     0   104  2.8484348260e+01  1.6201098278e+01  2.0444464666e+00  3.2834773375e+01  3.3000000000e-01 0. 9.
        2     1     5     0   104     0  1.4391635928e+01 -3.3843293111e+01 -7.5868120288e+01  8.4312325607e+01  3.3000000000e-01 0. 9.
        1     1     7     0   105     0 -4.9942370800e+01  6.5876099185e+00 -2.4531485270e+01  5.6031595329e+01  3.3000000000e-01 0. 9.
       -2     1     7     0     0   105  3.1762174341e+01  5.8978688864e+01  3.4990689120e+01  7.5576310336e+01  3.3000000000e-01 0. 9.
#pdf   21   21  2.471846e-02  5.019867e-02  2.255034e+02  3.807954e+00  1.877898e+00
</event>
<event>
    12  9999  1.000000e+00  1.959792e+02  7.885901e-03  1.059964e-01
       -1    -1     0     0     0   101  0.0000000000e+00  0.0000000000e+00  1.4419804559e+01  1.4419804559e+01  0.0000000000e+00 0. 9.
        1    -1     0     0   102     0  0.0000000000e+00  0.0000000000e+00 -3.0248777939e+03  3.0248777939e+03  0.0000000000e+00 0. 9.
       -6     2     1     2     0   101 -1.1430926262e+02 -6.3736115348e+00 -1.9586765321e+03  1.9675286088e+03  1.4713204471e+02  3.161016e-13 9.
        6     2     1     2   102     0  1.1430926262e+02  6.3736115348e+00 -1.0517814572e+03  1.0717689897e+03  1.7128135615e+02  6.889685e-14 9.
      -24     2     3     0     0     0 -1.1586023583e+01  1.6061958102e+00 -7.2481227110e+02  7.2936068975e+02  8.0482119851e+01  7.797249e-15 9.
       -5     1     3     0     0   101 -1.0272323904e+02 -7.9798073451e+00 -1.2338642610e+03  1.2381679191e+03  4.8000000000e+00 0. 9.
       24     2     4     0     0     0  3.0185368544e+00  1.0465847163e+01 -2.1639350274e+02  2.2897693550e+02  7.4065129731e+01  2.157921e-14 9.
        5     1     4     0   102     0  1.1129072577e+02 -4.0922356285e+00 -8.3538795449e+02  8.4279205415e+02  4.8000000000e+00 0. 9.
       11     1     5     0     0     0 -2.6933602126e+01  3.0278565530e+01 -2.3487972141e+02  2.3834994018e+02  5.1100000000e-04 0. 9.
      -12     1     5     0     0     0  1.5347578543e+01 -2.8672369720e+01 -4.8993254969e+02  4.9101074957e+02  0.0000000000e+00 0. 9.
       -1     1     7     0     0   103  3.4500442243e+01  1.1190260725e+01 -6.5887515366e+01  7.5211541874e+01  3.3000000000e-01 0. 9.
        2     1     7     0   103     0 -3.1481905388e+01 -7.2441356139e-01 -1.5050598738e+02  1.5376539363e+02  3.3000000000e-01 0. 9.
#pdf   -1    1  2.218431e-03  4.653658e-01  1.864271e+02  1.139188e+00  3.779709e-02
</event>
<event>
    12  9999  1.000000e+00  1.749964e+02  7.875703e-03  1.074774e-01
       21    -1     0     0   101   102  0.0000000000e+00  0.0000000000e+00  2.3123736076e+03  2.3123736076e+03  0.0000000000e+00 0. 9.
       21    -1     0     0   103   101  0.0000000000e+00  0.0000000000e+00 -1.8270764623e+01  1.8270764623e+01  0.0000000000e+00 0. 9.
        6     2     1     2   103     0  2.8865445655e+01 -2.3670166657e+01  5.3303705056e+02  5.6084785792e+02  1.7037702816e+02  7.332709e-14 9.
       -6     2     1     2     0   102 -2.8865445655e+01  2.3670166657e+01  1.7610657924e+03  1.7697965143e+03  1.7156190156e+02  3.061882e-13 9.
       24     2     3     0     0     0 -2.4862031722e+01 -2.7082802488e+01  1.4875452742e+02  1.7278293358e+02  7.9840051974e+01  7.416348e-14 9.
        5     1     3     0   103     0  5.3727477376e+01  3.4126358304e+00  3.8428252314e+02  3.8806492434e+02  4.8000000000e+00 0. 9.
      -24     2     4     0     0     0 -1.5047109587e+01  1.9873866519e+01  3.9354206047e+02  4.0218927691e+02  7.9116844162e+01  2.009117e-14 9.
       -5     1     4     0     0   102 -1.3818336068e+01  3.7963001379e+00  1.3675237320e+03  1.3676072374e+03  4.8000000000e+00 0. 9.
      -13     1     5     0     0     0 -3.6572382235e+01 -2.4945666916e+01  1.5365847063e+02  1.5990860577e+02  1.0566000000e-01  8.097693e+05 9.
       14     1     5     0     0     0  1.1710350513e+01 -2.1371355716e+00 -4.9039432119e+00  1.2874327812e+01  0.0000000000e+00 0. 9.
       15     1     7     0     0     0 -1.1526720967e+01 -7.5015963121e+00  3.5224464581e+02  3.5251749862e+02  1.7768200000e+00  1.274178e-01 9.
      -16     1     7     0     0     0 -3.5203886194e+00  2.7375462831e+01  4.1297414655e+01  4.9671778290e+01  0.0000000000e+00 0. 9.
#pdf   21   21  3.557498e-01  2.810887e-03  1.744185e+02  5.921010e-02  1.968152e+01
</event>
<event>
    12  9999  1.000000e+00  2.465375e+02  7.906650e-03  1.031182e-01
       21    -1     0     0   101   102  0.0000000000e+00  0.0000000000e+00  1.1371955974e+03  1.1371955974e+03  0.0000000000e+00 0. 9.
       21    -1     0     0   103   101  0.0000000000e+00  0.0000000000e+00 -5.6503019569e+01  5.6503019569e+01  0.0000000000e+00 0. 9.
        6     2     1     2   103     0 -3.6473539976e+01  1.7374236333e+02  4.0281999864e+02  4.7259175793e+02  1.7193687921e+02  4.064308e-14 9.
       -6     2     1     2     0   102  3.6473539976e+01 -1.7374236333e+02  6.7787257921e+02  7.2110685905e+02  1.7019735776e+02  4.386179e-15 9.
       24     2     3     0     0     0 -6.0174437480e+01  1.4449691481e+02  2.0210770714e+02  2.6832356961e+02  8.1545640041e+01  1.998571e-14 9.
        5     1     3     0   103     0  2.3700897504e+01  2.9245448528e+01  2.0071229150e+02  2.0426818833e+02  4.8000000000e+00 0. 9.
      -24     2     4     0     0     0 -1.1571932418e+01 -1.0831779439e+02  2.3443689531e+02  2.7027763707e+02  7.8884022548e+01  5.410819e-14 9.
       -5     1     4     0     0   102  4.8045472394e+01 -6.5424568940e+01  4.4343568390e+02  4.5082922198e+02  4.8000000000e+00 0. 9.
       -1     1     5     0     0   104 -6.0914790398e+00  5.0460649744e+01  1.2583735644e+02  1.3571489404e+02  3.3000000000e-01 0. 9.
        2     1     5     0   104     0 -5.4082958440e+01  9.4036265061e+01  7.6270350700e+01  1.3260867557e+02  3.3000000000e-01 0. 9.
       15     1     7     0     0     0  2.4409714293e+01 -7.9346249547e+00  6.6962572824e+01  7.1735177379e+01  1.7768200000e+00  1.270622e-01 9.
      -16     1     7     0     0     0 -3.5981646711e+01 -1.0038316944e+02  1.6747432249e+02  1.9854245969e+02  0.0000000000e+00 0. 9.
#pdf   21   21  1.749532e-01  8.692772e-03  2.459347e+02  3.318303e-01  9.055147e+00
</event>
<event>
    12  9999  1.000000e+00  1.927988e+02  7.884426e-03  1.062078e-01
       21    -1     0     0   101   102  0.0000000000e+00  0.0000000000e+00  2.9146119842e+02  2.9146119842e+02  0.0000000000e+00 0. 9.
       21    -1     0     0   103   101  0.0000000000e+00  0.0000000000e+00 -2.9729978999e+02  2.9729978999e+02  0.0000000000e+00 0. 9.
        6     2     1     2   103     0  7.3840351661e+01  5.1535945345e+01 -2.2535964207e+02  2.9586156953e+02  1.6922986986e+02  1.536499e-13 9.
       -6     2     1     2     0   102 -7.3840351661e+01 -5.1535945345e+01  2.1952105050e+02  2.9289941889e+02  1.7173301015e+02  1.623925e-14 9.
       24     2     3     0     0     0  4.7929483247e+01 -3.3405990401e+01 -1.0236097277e+02  1.4407811127e+02  8.2870609041e+01  8.125466e-14 9.
        5     1     3     0   103     0  2.5910868414e+01  8.4941935746e+01 -1.2299866930e+02  1.5178345826e+02  4.8000000000e+00 0. 9.
      -24     2     4     0     0     0 -1.1563388034e+02 -2.3251991649e+01  1.6533890444e+02  2.1870086076e+02  8.1124988611e+01  1.621276e-15 9.
       -5     1     4     0     0   102  4.1793528683e+01 -2.8283953696e+01  5.4182146057e+01  7.4198558125e+01  4.8000000000e+00 0. 9.
       -1     1     5     0     0   104  5.1430869247e+01 -5.6041855809e+01 -9.0698004033e+01  1.1837255066e+02  3.3000000000e-01 0. 9.
        2     1     5     0   104     0 -3.5013860000e+00  2.2635865409e+01 -1.1662968735e+01  2.5705560613e+01  3.3000000000e-01 0. 9.
        1     1     7     0   105     0 -1.8944441616e+01  2.3589996854e+01  6.4985601110e+01  7.1684147978e+01  3.3000000000e-01 0. 9.
       -2     1     7     0     0   105 -9.6689438728e+01 -4.6841988503e+01  1.0035330333e+02  1.4701671279e+02  3.3000000000e-01 0. 9.
#pdf   21   21  4.484018e-02  4.573843e-02  1.916953e+02  2.141079e+00  2.096733e+00
</event>
<event>
    12  9999  1.000000e+00  1.981182e+02  7.886880e-03  1.058566e-01
       21    -1     0     0   101   102  0.0000000000e+00  0.0000000000e+00  9.8530093316e+01  9.8530093316e+01  0.0000000000e+00 0. 9.
       21    -1     0     0   102   103  0.0000000000e+00  0.0000000000e+00 -5.5951858667e+02  5.5951858667e+02  0.0000000000e+00 0. 9.
        6     2     1     2   101     0 -2.7686955841e+01  9.6507912103e+01 -5.3832969499e+01  2.0520734988e+02  1.7068017816e+02  1.922092e-13 9.
       -6     2     1     2     0   103  2.7686955841e+01 -9.6507912103e+01 -4.0715552385e+02  4.5284133011e+02  1.7090729951e+02  3.932978e-13 9.
       24     2     3     0     0     0 -5.0270435936e+00 -1.2946928386e+01  8.0974602357e+00  7.7331426200e+01  7.5641830318e+01  1.191113e-14 9.
        5     1     3     0   101     0 -2.2659912248e+01  1.0945484049e+02 -6.1930429735e+01  1.2787592368e+02  4.8000000000e+00 0. 9.
      -24     2     4     0     0     0  5.8055942897e+01 -4.0525903034e+01 -1.3648976916e+02  1.7474197470e+02  8.3020836626e+01  1.525359e-13 9.
       -5     1     4     0     0   103 -3.0368987056e+01 -5.5982009069e+01 -2.7066575469e+02  2.7809935540e+02  4.8000000000e+00 0. 9.
      -15     1     5     0     0     0 -2.1643438476e+01 -5.0011811450e+00  3.6921362475e+01  4.3125332906e+01  1.7768200000e+00  8.421672e-02 9.
       16     1     5     0     0     0  1.6616394883e+01 -7.9457472407e+00 -2.8823902239e+01  3.4206093294e+01  0.0000000000e+00 0. 9.
        1     1     7     0   104     0  2.5427370536e+01 -5.4299560146e+01 -4.0313827043e+01  7.2251691712e+01  3.3000000000e-01 0. 9.
       -2     1     7     0     0   104  3.2628572361e+01  1.3773657111e+01 -9.6175942122e+01  1.0249028299e+02  3.3000000000e-01 0. 9.
#pdf   21   21  1.515848e-02  8.607978e-02  1.980204e+02  5.832862e+00  9.994914e-01
</event>
<event>
    12  9999  1.000000e+00  3.326567e+02  7.933901e-03  9.959096e-02
       -2    -1     0     0     0   101  0.0000000000e+00  0.0000000000e+00  8.0548546495e+01  8.0548546495e+01  0.0000000000e+00 0. 9.
        2    -1     0     0   102     0  0.0000000000e+00  0.0000000000e+00 -1.7616490846e+03  1.7616490846e+03  0.0000000000e+00 0. 9.
       -6     2     1     2     0   101 -2.2610316539e+02 -1.7417058338e+02 -4.0863849338e+02  5.2700489529e+02  1.7114528296e+02  3.305898e-14 9.
        6     2     1     2   102     0  2.2610316539e+02  1.7417058338e+02 -1.2724620448e+03  1.3151927358e+03  1.7062896451e+02  1.348361e-13 9.
      -24     2     3     0     0     0 -1.1964031573e+02 -1.5901724230e+02 -3.3005200966e+02  3.9372759968e+02  8.0540705054e+01  5.329019e-15 9.
       -5     1     3     0     0   101 -1.0646284966e+02 -1.5153341075e+01 -7.8586483722e+01  1.3327729562e+02  4.8000000000e+00 0. 9.
       24     2     4     0     0     0  1.4529705972e+02  3.5173854991e+01 -5.7326016345e+02  5.9772773457e+02  7.9390138160e+01  4.296632e-14 9.
        5     1     4     0   102     0  8.0806105668e+01  1.3899672839e+02 -6.9920188131e+02  7.1746500127e+02  4.8000000000e+00 0. 9.
        1     1     5     0   103     0 -3.9332803417e+01 -1.6297500715e+01 -3.0636732647e+01  5.2453753359e+01  3.3000000000e-01 0. 9.
       -2     1     5     0     0   103 -8.0307512311e+01 -1.4271974159e+02 -2.9941527701e+02  3.4127384632e+02  3.3000000000e-01 0. 9.
       -1     1     7     0     0   104  1.0159198207e+02  5.7606155487e+01 -4.5318181805e+02  4.6798853521e+02  3.3000000000e-01 0. 9.
        2     1     7     0   104     0  4.3705077655e+01 -2.2432300496e+01 -1.2007834539e+02  1.2973919936e+02  3.3000000000e-01 0. 9.
#pdf   -2    2  1.239208e-02  2.710229e-01  3.325241e+02  4.691060e-01  3.310038e-01
</event>
<event>
    12  9999  1.000000e+00  1.908024e+02  7.883488e-03  1.063427e-01
       21    -1     0     0   101   102  0.0000000000e+00  0.0000000000e+00  4.9227111538e+02  4.9227111538e+02  0.0000000000e+00 0. 9.
       21    -1     0     0   103   101  0.0000000000e+00  0.0000000000e+00 -7.6126895325e+01  7.6126895325e+01  0.0000000000e+00 0. 9.
        6     2     1     2   103     0 -8.1931991995e+01 -2.3086896762e+01  1.5944393913e+02  2.4820071992e+02  1.7010400209e+02  1.018869e-13 9.
       -6     2     1     2     0   102  8.1931991995e+01  2.3086896762e+01  2.5670028092e+02  3.2019729079e+02  1.7142174509e+02  3.223180e-14 9.
       24     2     3     0     0     0 -8.4384404928e+01 -6.4771368150e+01  1.0791821437e+02  1.8170598482e+02  1.0027295746e+02  2.765694e-14 9.
        5     1     3     0   103     0  2.4524129323e+00  4.1684471388e+01  5.1525724762e+01  6.6494735102e+01  4.8000000000e+00 0. 9.
      -24     2     4     0     0     0  1.0238578916e+02 -2.9805215529e+01  1.8535987121e+02  2.2893707263e+02  8.1747786965e+01  5.322224e-15 9.
       -5     1     4     0     0   102 -2.0453797163e+01  5.2892112292e+01  7.1340409716e+01  9.1260218165e+01  4.8000000000e+00 0. 9.
      -15     1     5     0     0     0  1.8621088091e+01  3.4027540753e+00  2.2364018058e+00  1.9143725848e+01  1.7768200000e+00  6.894952e-02 9.
       16     1     5     0     0     0 -1.0300549302e+02 -6.8174122226e+01  1.0568181257e+02  1.6256225897e+02  0.0000000000e+00 0. 9.
       11     1     7     0     0     0 -8.1649818283e+00 -1.3064037835e+01  5.5380518073e+01  5.7483369727e+01  5.1100000000e-04 0. 9.
      -12     1     7     0     0     0  1.1055077099e+02 -1.6741177694e+01  1.2997935314e+02  1.7145370290e+02  0.0000000000e+00 0. 9.
#pdf   21   21  7.573402e-02  1.171183e-02  1.902136e+02  1.179510e+00  7.177619e+00
</event>
<event>
    12  9999  1.000000e+00  2.911908e+02  7.921769e-03  1.011277e-01
       21    -1     0     0   101   102  0.0000000000e+00  0.0000000000e+00  1.8966203988e+02  1.8966203988e+02  0.0000000000e+00 0. 9.
       21    -1     0     0   102   103  0.0000000000e+00  0.0000000000e+00 -5.4848885603e+02  5.4848885603e+02  0.0000000000e+00 0. 9.
        6     2     1     2   101     0  2.2637860982e+02  6.4881700685e+01 -2.0768458142e+01  2.9205079367e+02  1.7148010718e+02  2.968279e-13 9.
       -6     2     1     2     0   103 -2.2637860982e+02 -6.4881700685e+01 -3.3805835800e+02  4.4610010224e+02  1.7106997906e+02  1.529827e-13 9.
       24     2     3     0     0     0  2.4048648429e+02  3.5863738859e+01 -6.0791683668e+00  2.5627525084e+02  8.0747080510e+01  4.529749e-14 9.
        5     1     3     0   101     0 -1.4107874473e+01  2.9017961826e+01 -1.4689289775e+01  3.5775542830e+01  4.8000000000e+00 0. 9.
      -24     2     4     0     0     0 -5.5731390066e+01 -5.6393731029e+01 -1.7514509225e+02  2.0997240078e+02  8.4417800326e+01  4.895161e-14 9.
       -5     1     4     0     0   103 -1.7064721976e+02 -8.4879696562e+00 -1.6291326575e+02  2.3612770146e+02  4.8000000000e+00 0. 9.
      -13     1     5     0     0     0  2.4327406817e+02  2.5316175550e+01 -9.7008670366e+00  2.4478010330e+02  1.0566000000e-01  5.359195e+05 9.
       14     1     5     0     0     0 -2.7875838732e+00  1.0547563310e+01  3.6216986699e+00  1.1495147536e+01  0.0000000000e+00 0. 9.
        1     1     7     0   104     0  1.0724274484e+01  1.1070235965e+01 -6.8638685490e+00  1.6875478630e+01  3.3000000000e-01 0. 9.
       -2     1     7     0     0   104 -6.6455664550e+01 -6.7463966994e+01 -1.6828122371e+02  1.9309692215e+02  3.3000000000e-01 0. 9.
#pdf   21   21  2.917878e-02  8.438290e-02  2.910702e+02  3.230609e+00  9.891057e-01
</event>
<event>
    12  9999  1.000000e+00  2.814368e+02  7.918670e-03  1.015287e-01
       21    -1     0     0   101   102  0.0000000000e+00  0.0000000000e+00  6.1897929380e+01  6.1897929380e+01  0.0000000000e+00 0. 9.
       21    -1     0     0   103   101  0.0000000000e+00  0.0000000000e+00 -1.6339500959e+03  1.6339500959e+03  0.0000000000e+00 0. 9.
        6     2     1     2   103     0 -2.2359573417e+02 -1.0431733983e+00 -1.1791031353e+03  1.2120386015e+03  1.6957956063e+02  5.226431e-13 9.
       -6     2     1     2     0   102  2.2359573417e+02  1.0431733983e+00 -3.9294903120e+02  4.8380942372e+02  1.7223959132e+02  4.119241e-13 9.
       24     2     3     0     0     0 -2.4410595832e+02  2.3696114306e+00 -1.1232931678e+03  1.1522882135e+03  7.9920286830e+01  2.584898e-14 9.
        5     1     3     0   103     0  2.0510224155e+01 -3.4127848289e+00 -5.5809967498e+01  5.9750388010e+01  4.8000000000e+00 0. 9.
      -24     2     4     0     0     0  1.7427266130e+02 -4.6718293955e+01 -2.2692779168e+02  3.0408737374e+02  9.1757009340e+01  3.049970e-13 9.
       -5     1     4     0     0   102  4.9323072865e+01  4.7761467353e+01 -1.6602123951e+02  1.7972204998e+02  4.8000000000e+00 0. 9.
      -11     1     5     0     0     0 -1.6421811819e+02  2.3959555156e+01 -8.7406348967e+02  8.8967895030e+02  5.1100000000e-04 0. 9.
       12     1     5     0     0     0 -7.9887840132e+01 -2.1589943726e+01 -2.4922967814e+02  2.6260926323e+02  0.0000000000e+00 0. 9.
        3     1     7     0   104     0  6.8596482374e+01 -5.6541015204e+01 -1.4467897911e+02  1.6980759933e+02  5.0000000000e-01 0. 9.
       -4     1     7     0     0   104  1.0567617893e+02  9.8227212492e+00 -8.2248812570e+01  1.3427977441e+02  1.5000000000e+00 0. 9.
#pdf   21   21  9.522758e-03  2.513769e-01  2.806303e+02  8.454011e+00  1.515395e-01
</event>
<event>
    12  9999  1.000000e+00  1.879733e+02  7.882142e-03  1.065370e-01
       21    -1     0     0   101   102  0.0000000000e+00  0.0000000000e+00  1.8899145041e+02  1.8899145041e+02  0.0000000000e+00 0. 9.
       21    -1     0     0   102   103  0.0000000000e+00  0.0000000000e+00 -1.8722871329e+02  1.8722871329e+02  0.0000000000e+00 0. 9.
        6     2     1     2   101     0 -4.4576452940e+01  6.5085524480e+01  7.9976459694e+00  1.8838563180e+02  1.7088592182e+02  8.757933e-14 9.
       -6     2     1     2     0   103  4.4576452940e+01 -6.5085524480e+01 -6.2349088511e+00  1.8783453190e+02  1.7035184658e+02  2.702429e-13 9.
       24     2     3     0     0     0  2.1483346102e+01  6.5299062513e+01  3.0363874611e+01  1.1847689965e+02  9.1593171928e+01  1.463228e-13 9.
        5     1     3     0   101     0 -6.6059799042e+01 -2.1353803257e-01 -2.2366228642e+01  6.9908732155e+01  4.8000000000e+00 0. 9.
      -24     2     4     0     0     0 -1.4186621265e+01 -3.3170398085e+01 -5.5620987373e+01  1.0456569659e+02  8.0862569429e+01  1.581762e-13 9.
       -5     1     4     0     0   103  5.8763074205e+01 -3.1915126396e+01  4.9386078522e+01  8.3268835314e+01  4.8000000000e+00 0. 9.
       -1     1     5     0     0   104  3.7413960990e+01  8.1009541365e+01  1.3045143703e+01  9.0181122988e+01  3.3000000000e-01 0. 9.
        2     1     5     0   104     0 -1.5930614888e+01 -1.5710478852e+01  1.7318730908e+01  2.8295776659e+01  3.3000000000e-01 0. 9.
       15     1     7     0     0     0  2.1100309850e+01  4.8952591122e+00 -4.7224618556e+01  5.1985654988e+01  1.7768200000e+00  7.479110e-02 9.
      -16     1     7     0     0     0 -3.5286931115e+01 -3.8065657197e+01 -8.3963688174e+00  5.2580041600e+01  0.0000000000e+00 0. 9.
#pdf   21   21  2.907561e-02  2.880442e-02  1.877310e+02  3.295921e+00  3.325076e+00
</event>
<event>
    12  9999  1.000000e+00  1.855199e+02  7.880958e-03  1.067085e-01
       21    -1     0     0   101   102  0.0000000000e+00  0.0000000000e+00  2.2120682620e+02  2.2120682620e+02  0.0000000000e+00 0. 9.
       21    -1     0     0   103   101  0.0000000000e+00  0.0000000000e+00 -4.5362805977e+02  4.5362805977e+02  0.0000000000e+00 0. 9.
        6     2     1     2   103     0 -5.7670157557e+01 -4.2475442765e+01 -3.8965654402e+02  4.3146430869e+02  1.7087778402e+02  1.379962e-13 9.
       -6     2     1     2     0   102  5.7670157557e+01  4.2475442765e+01  1.5723531045e+02  2.4337057727e+02  1.7139511288e+02  2.002481e-13 9.
       24     2     3     0     0     0  3.9495733910e+01 -1.9559397573e+01 -1.6532232935e+02  1.8587270570e+02  7.2627178873e+01  1.981715e-15 9.
        5     1     3     0   103     0 -9.7165891467e+01 -2.2916045193e+01 -2.2433421467e+02  2.4559160299e+02  4.8000000000e+00 0. 9.
      -24     2     4     0     0     0  3.8508830238e+00 -1.2778547594e+01  1.9033921231e+01  8.5028600069e+01  8.1789070747e+01  5.980794e-14 9.
       -5     1     4     0     0   102  5.3819274533e+01  5.5253990359e+01  1.3820138922e+02  1.5834197721e+02  4.8000000000e+00 0. 9.
      -15     1     5     0     0     0  2.2795024661e+00 -6.6826840874e+00 -1.3741078574e+02  1.3760354474e+02  1.7768200000e+00  3.334052e-01 9.
       16     1     5     0     0     0  3.7216231444e+01 -1.2876713485e+01 -2.7911543617e+01  4.8269160964e+01  0.0000000000e+00 0. 9.
       15     1     7     0     0     0  3.1392964913e+01  1.6487832675e+01 -8.2552515761e+00  3.6450968989e+01  1.7768200000e+00  2.086350e-02 9.
      -16     1     7     0     0     0 -2.7542081890e+01 -2.9266380269e+01  2.7289172807e+01  4.8577631080e+01  0.0000000000e+00 0. 9.
#pdf   21   21  3.403182e-02  6.978893e-02  1.852815e+02  2.835880e+00  1.305876e+00
</event>
<event>
    12  9999  1.000000e+00  1.885210e+02  7.882404e-03  1.064991e-01
       21    -1     0     0   101   102  0.0000000000e+00  0.0000000000e+00  5.2474266397e+02  5.2474266397e+02  0.0000000000e+00 0. 9.
       21    -1     0     0   102   103  0.0000000000e+00  0.0000000000e+00 -7.1536911710e+01  7.1536911710e+01  0.0000000000e+00 0. 9.
        6     2     1     2   101     0  2.2505410417e+01 -7.9023962539e+01  1.5634973115e+02  2.4391189864e+02  1.6821562268e+02  1.164040e-13 9.
       -6     2     1     2     0   103 -2.2505410417e+01  7.9023962539e+01  2.9685602111e+02  3.5236767704e+02  1.7113796306e+02  6.341547e-14 9.
       24     2     3     0     0     0 -4.2710240770e+01 -2.0706844159e+01  5.2697158361e+01  1.0818841761e+02  8.1699480689e+01  6.319086e-14 9.
        5     1     3     0   101     0  6.5215651187e+01 -5.8317118380e+01  1.0365257278e+02  1.3572348102e+02  4.8000000000e+00 0. 9.
      -24     2     4     0     0     0 -7.4366849596e+01  5.2040850787e+01  2.4676774349e+02  2.7523420344e+02  8.1368722805e+01  3.197612e-13 9.
       -5     1     4     0     0   103  5.1861439179e+01  2.6983111752e+01  5.0088277624e+01  7.7133473596e+01  4.8000000000e+00 0. 9.
      -11     1     5     0     0     0 -3.7087198561e+01 -5.0595700082e+01  4.3766478414e+01  7.6491109267e+01  5.1100000000e-04 0. 9.
       12     1     5     0     0     0 -5.6230422091e+00  2.9888855924e+01  8.9306799468e+00  3.1697308347e+01  0.0000000000e+00 0. 9.
        1     1     7     0   104     0  1.2990730168e+01  2.7391690296e+01  7.6381228833e+01  8.2178250076e+01  3.3000000000e-01 0. 9.
       -2     1     7     0     0   104 -8.7357579764e+01  2.4649160491e+01  1.7038651465e+02  1.9305595337e+02  3.3000000000e-01 0. 9.
#pdf   21   21  8.072964e-02  1.100568e-02  1.872105e+02  1.090562e+00  7.533917e+00
</event>
<event>
    12  9999  1.000000e+00  2.823609e+02  7.918968e-03  1.014900e-01
       21    -1     0     0   101   102  0.0000000000e+00  0.0000000000e+00  6.1358129588e+02  6.1358129588e+02  0.0000000000e+00 0. 9.
       21    -1     0     0   102   103  0.0000000000e+00  0.0000000000e+00 -1.4694334757e+02  1.4694334757e+02  0.0000000000e+00 0. 9.
        6     2     1     2   101     0  2.0050231105e+02  7.7299932485e+01  3.6813082383e+02  4.6897937542e+02  1.9556302005e+02  2.957038e-13 9.
       -6     2     1     2     0   103 -2.0050231105e+02 -7.7299932485e+01  9.8507124476e+01  2.9154526803e+02  1.7064153491e+02  2.141130e-13 9.
       24     2     3     0     0     0  1.1561480450e+02  3.0311688118e+01  8.0876668840e+01  1.6574386721e+02  8.1513265785e+01  1.626637e-15 9.
        5     1     3     0   101     0  8.4887506555e+01  4.6988244367e+01  2.8725415499e+02  3.0323550821e+02  4.8000000000e+00 0. 9.
      -24     2     4     0     0     0 -3.8107015772e+01 -6.2745454711e+01  6.0494357100e+01  1.2405773047e+02  7.9634267194e+01  6.046017e-15 9.
       -5     1     4     0     0   103 -1.6239529528e+02 -1.4554477773e+01  3.8012767376e+01  1.6748753755e+02  4.8000000000e+00 0. 9.
       -3     1     5     0     0   104 -1.9391552383e+00 -1.5476825293e+01  2.0803774862e+01  2.6006527886e+01  5.0000000000e-01 0. 9.
        4     1     5     0   104     0  1.1755395974e+02  4.5788513411e+01  6.0072893978e+01  1.3973733932e+02  1.5000000000e+00 0. 9.
        3     1     7     0   105     0  1.5124847790e+00  1.4484764648e-01  4.8767549720e+01  4.8793775185e+01  5.0000000000e-01 0. 9.
       -4     1     7     0     0   105 -3.9619500551e+01 -6.2890302358e+01  1.1726807380e+01  7.5263955290e+01  1.5000000000e+00 0. 9.
#pdf   21   21  9.439712e-02  2.260667e-02  2.743993e+02  8.563482e-01  4.106727e+00
</event>
<event>
    12  9999  1.000000e+00  2.332559e+02  7.901633e-03  1.037981e-01
       21    -1     0     0   101   102  0.0000000000e+00  0.0000000000e+00  9.6493773109e+01  9.6493773109e+01  0.0000000000e+00 0. 9.
       21    -1     0     0   102   103  0.0000000000e+00  0.0000000000e+00 -5.9098347764e+02  5.9098347764e+02  0.0000000000e+00 0. 9.
        6     2     1     2   101     0 -4.9617733291e+01 -1.4776002474e+02 -1.7179350416e+02  2.8822573867e+02  1.7107344618e+02  4.646873e-14 9.
       -6     2     1     2     0   103  4.9617733291e+01  1.4776002474e+02 -3.2269620037e+02  3.9925151208e+02  1.7599428343e+02  1.941471e-13 9.
       24     2     3     0     0     0 -7.0767735910e+01 -1.0354769510e+02 -1.8480464036e+02  2.3729065873e+02  8.0149260833e+01  4.749518e-14 9.
        5     1     3     0   101     0  2.1150002619e+01 -4.4212329643e+01  1.3011136201e+01  5.0935079940e+01  4.8000000000e+00 0. 9.
      -24     2     4     0     0     0  9.9243339441e+01  1.0077815731e+02 -2.6149662401e+02  3.0739061290e+02  7.8121873452e+01  2.079855e-13 9.
       -5     1     4     0     0   103 -4.9625606150e+01  4.6981867436e+01 -6.1199576354e+01  9.1860899187e+01  4.8000000000e+00 0. 9.
       -3     1     5     0     0   104 -6.6445480056e+01 -9.9580173728e+01 -1.1105631712e+02  1.6329411622e+02  5.0000000000e-01 0. 9.
        4     1     5     0   104     0 -4.3222558539e+00 -3.9675213730e+00 -7.3748323248e+01  7.3996542510e+01  1.5000000000e+00 0. 9.
        3     1     7     0   105     0  4.2817322611e+01  8.7270961249e+01 -1.1986986414e+02  1.5433268650e+02  5.0000000000e-01 0. 9.
       -4     1     7     0     0   105  5.6426016830e+01  1.3507196059e+01 -1.4162675987e+02  1.5305792639e+02  1.5000000000e+00 0. 9.
#pdf   21   21  1.484520e-02  9.092054e-02  2.314326e+02  5.926361e+00  9.161247e-01
</event>
<event>
    12  9999  1.000000e+00  1.718319e+02  7.874062e-03  1.077200e-01
       21    -1     0     0   101   102  0.0000000000e+00  0.0000000000e+00  9.2428842348e+01  9.2428842348e+01  0.0000000000e+00 0. 9.
       21    -1     0     0   102   103  0.0000000000e+00  0.0000000000e+00 -3.1945525496e+02  3.1945525496e+02  0.0000000000e+00 0. 9.
        6     2     1     2   101     0 -6.1067057147e+00 -1.4662190167e+01 -1.1293733745e+02  2.0597686834e+02  1.7152071719e+02  4.782699e-14 9.
       -6     2     1     2     0   103  6.1067057147e+00  1.4662190167e+01 -1.1408907516e+02  2.0590722896e+02  1.7067278106e+02  5.105896e-13 9.
       24     2     3     0     0     0 -1.8168079774e+01  4.3513855260e+01 -1.1294347298e+02  1.4637008145e+02  8.0277256642e+01  1.833895e-15 9.
        5     1     3     0   101     0  1.2061374059e+01 -5.8176045427e+01  6.1355225269e-03  5.9606786891e+01  4.8000000000e+00 0. 9.
      -24     2     4     0     0     0  5.2599840055e+01 -1.7770072274e+01 -2.0238985690e+01  9.6160509283e+01  7.5859794104e+01  1.252678e-13 9.
       -5     1     4     0     0   103 -4.6493134340e+01  3.2432262441e+01 -9.3850089467e+01  1.0974671968e+02  4.8000000000e+00 0. 9.
       -1     1     5     0     0   104 -2.7068354854e+01  5.4503495262e+01 -4.1787309470e+01  7.3821507456e+01  3.3000000000e-01 0. 9.
        2     1     5     0   104     0  8.9002750801e+00 -1.0989640002e+01 -7.1156163507e+01  7.2548573997e+01  3.3000000000e-01 0. 9.
        1     1     7     0   105     0  4.0854507845e+00  2.5978962104e+01 -1.5801376368e+01  3.0682075797e+01  3.3000000000e-01 0. 9.
       -2     1     7     0     0   105  4.8514389270e+01 -4.3749034378e+01 -4.4376093219e+00  6.5478433486e+01  3.3000000000e-01 0. 9.
#pdf   21   21  1.421982e-02  4.914696e-02  1.714102e+02  6.146783e+00  1.954554e+00
</event>
<event>
    12  9999  1.000000e+00  1.756283e+02  7.876027e-03  1.074296e-01
       21    -1     0     0   101   102  0.0000000000e+00  0.0000000000e+00  3.7230599725e+02  3.7230599725e+02  0.0000000000e+00 0. 9.
       21    -1     0     0   103   101  0.0000000000e+00  0.0000000000e+00 -1.6154314174e+02  1.6154314174e+02  0.0000000000e+00 0. 9.
        6     2     1     2   103     0 -9.1030203757e+00 -2.4249630798e+01 -8.0194866495e+01  1.9515603692e+02  1.7602202294e+02  3.475491e-13 9.
       -6     2     1     2     0   102  9.1030203757e+00  2.4249630798e+01  2.9095772200e+02  3.3869310206e+02  1.7142261176e+02  4.085634e-14 9.
       24     2     3     0     0     0 -7.4093284996e+01 -2.7447661193e+01 -5.2202100691e+01  1.2415887620e+02  8.0294322560e+01  8.174276e-14 9.
        5     1     3     0   103     0  6.4990264620e+01  3.1980303948e+00 -2.7992765803e+01  7.0997160726e+01  4.8000000000e+00 0. 9.
      -24     2     4     0     0     0  5.2070683329e+01  1.6318797708e+01  8.5607923284e+01  1.2869144015e+02  7.9089259820e+01  1.458380e-14 9.
       -5     1     4     0     0   102 -4.2967662953e+01  7.9308330907e+00  2.0534979871e+02  2.1000166191e+02  4.8000000000e+00 0. 9.
      -11     1     5     0     0     0 -1.5678793985e+01 -2.5062360542e+01  1.6574343566e+01  3.3891818507e+01  5.1100000000e-04 0. 9.
       12     1     5     0     0     0 -5.8414491011e+01 -2.3853006509e+00 -6.8776444258e+01  9.0267057690e+01  0.0000000000e+00 0. 9.
       11     1     7     0     0     0 -1.1649028404e+01  2.3780390707e+01  7.3179539557e+00  2.7472882908e+01  5.1100000000e-04 0. 9.
      -12     1     7     0     0     0  6.3719711733e+01 -7.4615929992e+00  7.8289969328e+01  1.0121855725e+02  0.0000000000e+00 0. 9.
#pdf   21   21  5.727785e-02  2.485279e-02  1.733685e+02  1.650950e+00  3.817365e+00
</event>
<event>
    12  9999  1.000000e+00  2.588358e+02  7.911065e-03  1.025279e-01
       21    -1     0     0   101   102  0.0000000000e+00  0.0000000000e+00  1.0340761269e+02  1.0340761269e+02  0.0000000000e+00 0. 9.
       21    -1     0     0   102   103  0.0000000000e+00  0.0000000000e+00 -6.5953362509e+02  6.5953362509e+02  0.0000000000e+00 0. 9.
        6     2     1     2   101     0 -2.4749135383e+01  1.9209747768e+02 -3.2816673604e+02  4.1761160879e+02  1.7085692410e+02  1.270206e-13 9.
       -6     2     1     2     0   103  2.4749135383e+01 -1.9209747768e+02 -2.2795927636e+02  3.4532962899e+02  1.7254900853e+02  2.625708e-14 9.
       24     2     3     0     0     0 -2.3773456135e+01  1.1328617211e+02 -9.5909257689e+01  1.7229803377e+02  8.4196750068e+01  1.293729e-13 9.
        5     1     3     0   101     0 -9.7567924837e-01  7.8811305578e+01 -2.3225747836e+02  2.4531357502e+02  4.8000000000e+00 0. 9.
      -24     2     4     0     0     0 -5.8252863751e+00 -1.5839322972e+02 -8.8277067925e+01  1.9834346995e+02  8.0155736957e+01  2.264346e-13 9.
       -5     1     4     0     0   103  3.0574421758e+01 -3.3704247964e+01 -1.3968220843e+02  1.4698615904e+02  4.8000000000e+00 0. 9.
       -3     1     5     0     0   104 -2.1861880262e+01  1.5427741132e+01  9.5451545833e+00  2.8413324006e+01  5.0000000000e-01 0. 9.
        4     1     5     0   104     0 -1.9115758723e+00  9.7858430975e+01 -1.0545441227e+02  1.4388470976e+02  1.5000000000e+00 0. 9.
       11     1     7     0     0     0  1.6618577349e+01 -1.4840296898e+02 -6.0127093500e+01  1.6098101033e+02  5.1100000000e-04 0. 9.
      -12     1     7     0     0     0 -2.2443863724e+01 -9.9902607455e+00 -2.8149974425e+01  3.7362459619e+01  0.0000000000e+00 0. 9.
#pdf   21   21  1.590886e-02  1.014667e-01  2.582751e+02  5.587375e+00  7.800085e-01
</event>
<event>
    12  9999  1.000000e+00  1.762737e+02  7.876357e-03  1.073810e-01
       21    -1     0     0   101   102  0.0000000000e+00  0.0000000000e+00  9.8032684583e+02  9.8032684583e+02  0.0000000000e+00 0. 9.
       21    -1     0     0   103   101  0.0000000000e+00  0.0000000000e+00 -4.7379484373e+01  4.7379484373e+01  0.0000000000e+00 0. 9.
        6     2     1     2   103     0 -3.2510957942e+01  2.2786894244e+01  7.6120741550e+02  7.8123591728e+02  1.7122098031e+02  6.954206e-14 9.
       -6     2     1     2     0   102  3.2510957942e+01 -2.2786894244e+01  1.7173994596e+02  2.4647041292e+02  1.7226970272e+02  9.963525e-14 9.
       24     2     3     0     0     0  2.5251432674e+01  5.8991601937e+01  3.8720936458e+02  4.0104536410e+02  8.2393252770e+01  8.293570e-14 9.
        5     1     3     0   103     0 -5.7762390617e+01 -3.6204707693e+01  3.7399805093e+02  3.8019055318e+02  4.8000000000e+00 0. 9.
      -24     2     4     0     0     0  4.1775009503e+01 -6.9115731061e+01  6.8711105812e+01  1.3302366033e+02  8.0323984257e+01  9.603216e-15 9.
       -5     1     4     0     0   102 -9.2640515610e+00  4.6328836818e+01  1.0302884014e+02  1.1344675259e+02  4.8000000000e+00 0. 9.
      -15     1     5     0     0     0 -1.4259584478e+01 -1.0666357509e+01  1.4119565234e+02  1.4232524815e+02  1.7768200000e+00  2.936352e-02 9.
       16     1     5     0     0     0  3.9511017152e+01  6.9657959445e+01  2.4601371224e+02  2.5872011595e+02  0.0000000000e+00 0. 9.
        1     1     7     0   104     0  1.5089091015e+01  1.6019257187e+01  2.9911808125e+00  2.2211558503e+01  3.3000000000e-01 0. 9.
       -2     1     7     0     0   104  2.6685918488e+01 -8.5134988249e+01  6.5719924999e+01  1.1081210183e+02  3.3000000000e-01 0. 9.
#pdf   21   21  1.508195e-01  7.289151e-03  1.757636e+02  4.501267e-01  1.025509e+01
</event>
<event>
    12  9999  1.000000e+00  2.261491e+02  7.898833e-03  1.041819e-01
       21    -1     0     0   101   102  0.0000000000e+00  0.0000000000e+00  3.0346959737e+02  3.0346959737e+02  0.0000000000e+00 0. 9.
       21    -1     0     0   103   101  0.0000000000e+00  0.0000000000e+00 -3.0471517886e+02  3.0471517886e+02  0.0000000000e+00 0. 9.
        6     2     1     2   103     0  1.3246877498e+02 -6.4519871461e+01 -2.0391716661e+02  3.0469858291e+02  1.7189597270e+02  3.415483e-13 9.
       -6     2     1     2     0   102 -1.3246877498e+02  6.4519871461e+01  2.0267158512e+02  3.0348619333e+02  1.7122297734e+02  3.729257e-15 9.
       24     2     3     0     0     0  9.2350958636e+01  2.0210286622e+01 -1.5370915398e+02  1.9824425745e+02  8.2079999675e+01  4.787724e-14 9.
        5     1     3     0   103     0  4.0117816346e+01 -8.4730158083e+01 -5.0208012622e+01  1.0645432546e+02  4.8000000000e+00 0. 9.
      -24     2     4     0     0     0 -1.2029409212e+02  6.3583652308e+01  7.4722044741e+01  1.7486572726e+02  8.0505212012e+01  7.391496e-14 9.
       -5     1     4     0     0   102 -1.2174682864e+01  9.3621915328e-01  1.2794954038e+02  1.2862046607e+02  4.8000000000e+00 0. 9.
       -3     1     5     0     0   104  7.2884330575e+01 -2.3922581697e+01 -1.0009456253e+02  1.2610942473e+02  5.0000000000e-01 0. 9.
        4     1     5     0   104     0  1.9466628060e+01  4.4132868319e+01 -5.3614591451e+01  7.2134832713e+01  1.5000000000e+00 0. 9.
        3     1     7     0   105     0 -1.4214511806e+01  7.2971382845e+00 -1.7308771298e+01  2.3561496915e+01  5.0000000000e-01 0. 9.
       -4     1     7     0     0   105 -1.0607958031e+02  5.6286514023e+01  9.2030816039e+01  1.5130423035e+02  1.5000000000e+00 0. 9.
#pdf   21   21  4.668763e-02  4.687926e-02  2.258940e+02  2.031164e+00  2.022255e+00
</event>
<event>
    12  9999  1.000000e+00  2.221551e+02  7.897222e-03  1.044043e-01
       21    -1     0     0   101   102  0.0000000000e+00  0.0000000000e+00  4.3335143276e+01  4.3335143276e+01  0.0000000000e+00 0. 9.
       21    -1     0     0   103   101  0.0000000000e+00  0.0000000000e+00 -1.2370315114e+03  1.2370315114e+03  0.0000000000e+00 0. 9.
        6     2     1     2   103     0 -1.2418676350e+02  6.4638397210e+01 -7.7449999129e+02  8.0543597165e+02  1.7110345787e+02  4.546949e-14 9.
       -6     2     1     2     0   102  1.2418676350e+02 -6.4638397210e+01 -4.1919637680e+02  4.7493068299e+02  1.7387661344e+02  7.942056e-14 9.
       24     2     3     0     0     0 -1.0606437236e+02  1.5788876109e+01 -7.0499755884e+02  7.1843985168e+02  8.7380334328e+01  4.095231e-13 9.
        5     1     3     0   103     0 -1.8122391145e+01  4.8849521101e+01 -6.9502432456e+01  8.6996119970e+01  4.8000000000e+00 0. 9.
      -24     2     4     0     0     0  8.3068781962e+01 -9.9086949483e+01 -2.1575782521e+02  2.6448431112e+02  8.1742679161e+01  1.241632e-13 9.
       -5     1     4     0     0   102  4.1117981541e+01  3.4448552273e+01 -2.0343855160e+02  2.1044637187e+02  4.8000000000e+00 0. 9.
      -15     1     5     0     0     0 -8.2700763978e+01 -2.9098213233e+01 -4.3923194025e+02  4.4789951641e+02  1.7768200000e+00  2.345351e-01 9.
       16     1     5     0     0     0 -2.3363608380e+01  4.4887089342e+01 -2.6576561858e+02  2.7054033527e+02  0.0000000000e+00 0. 9.
        1     1     7     0   104     0  3.6474442159e+01 -4.2276308440e+01 -2.7185882045e+01  6.2103560837e+01  3.3000000000e-01 0. 9.
       -2     1     7     0     0   104  4.6594339803e+01 -5.6810641044e+01 -1.8857194316e+02  2.0238075028e+02  3.3000000000e-01 0. 9.
#pdf   21   21  6.666945e-03  1.903125e-01  2.210811e+02  1.100820e+01  2.886756e-01
</event>
<event>
    12  9999  1.000000e+00  2.579731e+02  7.910762e-03  1.025682e-01
       21    -1     0     0   101   102  0.0000000000e+00  0.0000000000e+00  7.7113086256e+01  7.7113086256e+01  0.0000000000e+00 0. 9.
       21    -1     0     0   103   101  0.0000000000e+00  0.0000000000e+00 -9.8769814200e+02  9.8769814200e+02  0.0000000000e+00 0. 9.
        6     2     1     2   103     0 -1.9279908494e+02  5.7634202709e+00 -6.4290782206e+02  6.9236546474e+02  1.6980802379e+02  6.933399e-14 9.
       -6     2     1     2     0   102  1.9279908494e+02 -5.7634202709e+00 -2.6767723369e+02  3.7244576351e+02  1.7280058205e+02  5.464437e-15 9.
       24     2     3     0     0     0 -1.2983887141e+02  2.8004404899e+01 -5.8021222891e+02  6.0064617951e+02  8.0543299861e+01  9.259056e-15 9.
        5     1     3     0   103     0 -6.2960213530e+01 -2.2240984628e+01 -6.2695593145e+01  9.1719285239e+01  4.8000000000e+00 0. 9.
      -24     2     4     0     0     0  9.7160392178e+01 -2.8099553855e+01 -2.3425174471e+02  2.6859025942e+02  8.3887548672e+01  3.631132e-14 9.
       -5     1     4     0     0   102  9.5638692762e+01  2.2336133585e+01 -3.3425488982e+01  1.0385550409e+02  4.8000000000e+00 0. 9.
       -3     1     5     0     0   104 -1.2474173898e+02  3.7533190773e+01 -4.1251950225e+02  4.3259892694e+02  5.0000000000e-01 0. 9.
        4     1     5     0   104     0 -5.0971324298e+00 -9.5287858736e+00 -1.6769272667e+02  1.6804725257e+02  1.5000000000e+00 0. 9.
       15     1     7     0     0     0 -1.4138350580e+01 -8.3456943935e+00 -1.7058124400e+01  2.3741951676e+01  1.7768200000e+00  1.555932e-01 9.
      -16     1     7     0     0     0  1.1129874276e+02 -1.9753859462e+01 -2.1719362031e+02  2.4484830774e+02  0.0000000000e+00 0. 9.
#pdf   21   21  1.186355e-02  1.519536e-01  2.569815e+02  7.108254e+00  4.215608e-01
</event>
<event>
    12  9999  1.000000e+00  1.845787e+02  7.880500e-03  1.067750e-01
        4    -1     0     0   101     0  0.0000000000e+00  0.0000000000e+00  1.5804753086e+02  1.5804753086e+02  0.0000000000e+00 0. 9.
       -4    -1     0     0     0   102  0.0000000000e+00  0.0000000000e+00 -2.3549301820e+02  2.3549301820e+02  0.0000000000e+00 0. 9.
        6     2     1     2   101     0  2.9930907087e+01 -6.1011405583e+01  1.8528461231e+01  1.8546110164e+02  1.7156417323e+02  1.212281e-13 9.
       -6     2     1     2     0   102 -2.9930907087e+01  6.1011405583e+01 -9.5973948565e+01  2.0807944743e+02  1.7166189684e+02  6.269976e-14 9.
       24     2     3     0     0     0  6.1184905998e+01 -2.9565856195e+01  6.2695677794e+01  1.2269631817e+02  8.0659196033e+01  3.053876e-14 9.
        5     1     3     0   101     0 -3.1253998912e+01 -3.1445549388e+01 -4.4167216563e+01  6.2764783463e+01  4.8000000000e+00 0. 9.
      -24     2     4     0     0     0  4.6835456803e+01  2.8608168795e+01 -3.0243860361e+01  1.0184137104e+02  8.0280672828e+01  5.667128e-14 9.
       -5     1     4     0     0   102 -7.6766363890e+01  3.2403236788e+01 -6.5730088205e+01  1.0623807639e+02  4.8000000000e+00 0. 9.
       -3     1     5     0     0   103 -1.7524451449e+01 -1.9135197719e+01  1.7832084184e+01  3.1488020209e+01  5.0000000000e-01 0. 9.
        4     1     5     0   103     0  7.8709357447e+01 -1.0430658476e+01  4.4863593610e+01  9.1208297965e+01  1.5000000000e+00 0. 9.
       11     1     7     0     0     0  1.8195631201e+01  1.6395149919e+01 -5.6200524798e+01  6.1305635332e+01  5.1100000000e-04 0. 9.
      -12     1     7     0     0     0  2.8639825602e+01  1.2213018876e+01  2.5956664437e+01  4.0535735707e+01  0.0000000000e+00 0. 9.
#pdf    4   -4  2.431500e-02  3.622970e-02  1.845332e+02  1.607037e-01  1.122481e-01
</event>
<event>
    12  9999  1.000000e+00  2.168090e+02  7.895019e-03  1.047098e-01
       21    -1     0     0   101   102  0.0000000000e+00  0.0000000000e+00  2.3214023763e+02  2.3214023763e+02  0.0000000000e+00 0. 9.
       21    -1     0     0   103   101  0.0000000000e+00  0.0000000000e+00 -2.0297434478e+02  2.0297434478e+02  0.0000000000e+00 0. 9.
        6     2     1     2   103     0  1.3019009674e+02  2.9818722991e+01  4.7572359236e+00  2.2030934201e+02  1.7514267714e+02  1.128040e-14 9.
       -6     2     1     2     0   102 -1.3019009674e+02 -2.9818722991e+01  2.4408656931e+01  2.1480524040e+02  1.6645387121e+02  4.552543e-14 9.
       24     2     3     0     0     0  4.9991708209e+01  4.9466474410e+01 -6.3446098145e+01  1.1310602846e+02  6.1817985445e+01  4.292035e-14 9.
        5     1     3     0   103     0  8.0198388526e+01 -1.9647751419e+01  6.8203334069e+01  1.0720331355e+02  4.8000000000e+00 0. 9.
      -24     2     4     0     0     0 -9.9399007897e+01 -4.8377224626e+01 -3.9227121022e+01  1.4155866116e+02  7.9243730928e+01  7.786483e-14 9.
       -5     1     4     0     0   102 -3.0791088838e+01  1.8558501634e+01  6.3635777954e+01  7.3246579241e+01  4.8000000000e+00 0. 9.
      -13     1     5     0     0     0  6.2429205828e+01  4.9384745195e+01 -4.6843058460e+01  9.2360933777e+01  1.0566000000e-01  1.861616e+06 9.
       14     1     5     0     0     0 -1.2437497619e+01  8.1729214905e-02 -1.6603039686e+01  2.0745094685e+01  0.0000000000e+00 0. 9.
       15     1     7     0     0     0 -5.3433300143e+00 -4.0510414790e+01 -1.8680600026e+01  4.4964061080e+01  1.7768200000e+00  8.036139e-02 9.
      -16     1     7     0     0     0 -9.4055677883e+01 -7.8668098352e+00 -2.0546520996e+01  9.6594600077e+01  0.0000000000e+00 0. 9.
#pdf   21   21  3.571388e-02  3.122682e-02  2.134139e+02  2.687108e+00  3.064432e+00
</event>
<event>
    12  9999  1.000000e+00  1.727706e+02  7.874552e-03  1.076475e-01
       21    -1     0     0   101   102  0.0000000000e+00  0.0000000000e+00  7.4313258056e+01  7.4313258056e+01  0.0000000000e+00 0. 9.
       21    -1     0     0   102   103  0.0000000000e+00  0.0000000000e+00 -5.7914824985e+02  5.7914824985e+02  0.0000000000e+00 0. 9.
        6     2     1     2   101     0  1.7315651697e+01 -1.5097976215e+01 -7.0712949124e+01  1.8591454006e+02  1.7039986606e+02  1.568469e-13 9.
       -6     2     1     2     0   103 -1.7315651697e+01  1.5097976215e+01 -4.3412204267e+02  4.6754696784e+02  1.7207683903e+02  1.005196e-13 9.
       24     2     3     0     0     0 -1.9408674906e+01 -2.0588773280e+01 -1.0590426063e+02  1.3453075446e+02  7.7988571136e+01  2.588547e-13 9.
        5     1     3     0   101     0  3.6724326604e+01  5.4907970645e+00  3.5191311510e+01  5.1383785601e+01  4.8000000000e+00 0. 9.
      -24     2     4     0     0     0 -5.1470393739e+01  6.2255701428e+01 -3.0614197926e+02  3.2686173734e+02  8.1183188422e+01  2.617946e-13 9.
       -5     1     4     0     0   103  3.4154742042e+01 -4.7157725212e+01 -1.2798006340e+02  1.4068523050e+02  4.8000000000e+00 0. 9.
       -1     1     5     0     0   104 -1.7586262041e+01  1.6510713216e+00  7.3236424569e+00  1.9124520593e+01  3.3000000000e-01 0. 9.
        2     1     5     0   104     0 -1.8224128653e+00 -2.2239844601e+01 -1.1322790309e+02  1.1540623386e+02  3.3000000000e-01 0. 9.
        1     1     7     0   105     0 -2.8980307879e+01  7.5481774697e+01 -1.7008341002e+02  1.8832374206e+02  3.3000000000e-01 0. 9.
       -2     1     7     0     0   105 -2.2490085860e+01 -1.3226073270e+01 -1.3605856924e+02  1.3853799529e+02  3.3000000000e-01 0. 9.
#pdf   21   21  1.143281e-02  8.909973e-02  1.719415e+02  7.307330e+00  9.684412e-01
</event>
<event>
    12  9999  1.000000e+00  1.761016e+02  7.876269e-03  1.073940e-01
       21    -1     0     0   101   102  0.0000000000e+00  0.0000000000e+00  1.0929519236e+03  1.0929519236e+03  0.0000000000e+00 0. 9.
       21    -1     0     0   102   103  0.0000000000e+00  0.0000000000e+00 -4.9325434780e+01  4.9325434780e+01  0.0000000000e+00 0. 9.
        6     2     1     2   101     0 -3.4898210570e+01  2.3208149960e+01  8.9487716117e+02  9.1213517960e+02  1.7154867808e+02  2.052194e-13 9.
       -6     2     1     2     0   103  3.4898210570e+01 -2.3208149960e+01  1.4874932769e+02  2.3014217882e+02  1.7053608609e+02  9.866684e-15 9.
       24     2     3     0     0     0 -2.1129915965e+01  3.6218620048e+01  8.8623217550e+02  8.9076665027e+02  7.9369355330e+01  8.365146e-14 9.
        5     1     3     0   101     0 -1.3768294605e+01 -1.3010470088e+01  8.6449856741e+00  2.1368529326e+01  4.8000000000e+00 0. 9.
      -24     2     4     0     0     0  1.9057805033e+01  2.6054063635e+01  1.2307137873e+01  8.4138085394e+01  7.6718561030e+01  4.455210e-15 9.
       -5     1     4     0     0   103  1.5840405537e+01 -4.9262213595e+01  1.3644218981e+02  1.4600409343e+02  4.8000000000e+00 0. 9.
       -1     1     5     0     0   104 -1.8014910606e+01  2.9837772692e+01  1.3271427331e+02  1.3721522118e+02  3.3000000000e-01 0. 9.
        2     1     5     0   104     0 -3.1150053593e+00  6.3808473560e+00  7.5351790218e+02  7.5355142909e+02  3.3000000000e-01 0. 9.
        3     1     7     0   105     0  4.5013732881e+01 -1.7969058433e+00  8.5093211557e+00  4.5848921089e+01  5.0000000000e-01 0. 9.
       -4     1     7     0     0   105 -2.5955927848e+01  2.7850969478e+01  3.7978167171e+00  3.8289164304e+01  1.5000000000e+00 0. 9.
#pdf   21   21  1.681464e-01  7.588528e-03  1.756105e+02  3.749934e-01  9.958084e+00
</event>
<event>
    12  9999  1.000000e+00  1.966681e+02  7.886217e-03  1.059511e-01
       21    -1     0     0   101   102  0.0000000000e+00  0.0000000000e+00  7.4775505996e+01  7.4775505996e+01  0.0000000000e+00 0. 9.
       21    -1     0     0   102   103  0.0000000000e+00  0.0000000000e+00 -5.2358565929e+02  5.2358565929e+02  0.0000000000e+00 0. 9.
        6     2     1     2   101     0 -8.5983652969e+01  4.7150562853e+01 -1.9042978162e+02  2.7304084143e+02  1.6932641615e+02  4.742948e-15 9.
       -6     2     1     2     0   103  8.5983652969e+01 -4.7150562853e+01 -2.5838037168e+02  3.2532032386e+02  1.7162905491e+02  1.966249e-13 9.
       24     2     3     0     0     0 -1.3942286242e+01  7.5675063995e+01 -7.7311120673e+01  1.3584580821e+02  8.0968954379e+01  5.796915e-14 9.
        5     1     3     0   101     0 -7.2041366728e+01 -2.8524501142e+01 -1.1311866094e+02  1.3719503321e+02  4.8000000000e+00 0. 9.
      -24     2     4     0     0     0  8.4787296872e+01 -1.8093385274e+01 -2.6879333817e+02  2.9405979430e+02  8.1884355501e+01  9.621837e-14 9.
       -5     1     4     0     0   103  1.1963560973e+00 -2.9057177580e+01  1.0412966497e+01  3.1260529555e+01  4.8000000000e+00 0. 9.
      -13     1     5     0     0     0 -2.4056006282e+01 -6.7561281568e+00 -4.4805435665e+00  2.5385490750e+01  1.0566000000e-01  2.737956e+05 9.
       14     1     5     0     0     0  1.0113720040e+01  8.2431192152e+01 -7.2830577107e+01  1.1046031746e+02  0.0000000000e+00 0. 9.
        3     1     7     0   104     0  2.1832093602e+01  1.0885724888e+01 -1.7882956320e+02  1.8048657011e+02  5.0000000000e-01 0. 9.
       -4     1     7     0     0   104  6.2955203270e+01 -2.8979110162e+01 -8.9963774977e+01  1.1357322419e+02  1.5000000000e+00 0. 9.
#pdf   21   21  1.150392e-02  8.055164e-02  1.956727e+02  7.280454e+00  1.089296e+00
</event>
<event>
    12  9999  1.000000e+00  1.797567e+02  7.878117e-03  1.071226e-01
       21    -1     0     0   101   102  0.0000000000e+00  0.0000000000e+00  5.0594948480e+02  5.0594948480e+02  0.0000000000e+00 0. 9.
       21    -1     0     0   102   103  0.0000000000e+00  0.0000000000e+00 -6.3925400764e+01  6.3925400764e+01  0.0000000000e+00 0. 9.
        6     2     1     2   101     0 -8.5017336201e+00  5.7293978644e+01  2.2900815528e+02  2.9077464005e+02  1.6955906537e+02  9.094108e-14 9.
       -6     2     1     2     0   103  8.5017336201e+00 -5.7293978644e+01  2.1301592875e+02  2.7910024551e+02  1.7078138563e+02  1.572360e-13 9.
       24     2     3     0     0     0 -5.6785259929e+01  6.3603364822e+01  2.0547473432e+02  2.3647943613e+02  8.0204136465e+01  2.955616e-13 9.
        5     1     3     0   101     0  4.8283526309e+01 -6.3093861781e+00  2.3533420956e+01  5.4295203920e+01  4.8000000000e+00 0. 9.
      -24     2     4     0     0     0 -4.3698842259e+01 -5.2073499550e+01  6.9040879186e+01  1.2579007487e+02  8.0220083312e+01  5.074792e-14 9.
       -5     1     4     0     0   103  5.2200575879e+01 -5.2204790936e+00  1.4397504957e+02  1.5331017064e+02  4.8000000000e+00 0. 9.
      -15     1     5     0     0     0 -4.8371806203e+01  1.4500775089e+01  4.2391733841e+01  6.5956957942e+01  1.7768200000e+00  2.413216e-02 9.
       16     1     5     0     0     0 -8.4134537265e+00  4.9102589732e+01  1.6308300048e+02  1.7052247819e+02  0.0000000000e+00 0. 9.
        1     1     7     0   104     0 -4.6837716110e+00  1.8270383586e+01  3.2191997172e+01  3.7311904465e+01  3.3000000000e-01 0. 9.
       -2     1     7     0     0   104 -3.9015070648e+01 -7.0343883136e+01  3.6848882014e+01  8.8478170404e+01  3.3000000000e-01 0. 9.
#pdf   21   21  7.783838e-02  9.834677e-03  1.791791e+02  1.145911e+00  8.210161e+00
</event>
<event>
    12  9999  1.000000e+00  2.368400e+02  7.903014e-03  1.036100e-01
       21    -1     0     0   101   102  0.0000000000e+00  0.0000000000e+00  1.1153951350e+02  1.1153951350e+02  0.0000000000e+00 0. 9.
       21    -1     0     0   102   103  0.0000000000e+00  0.0000000000e+00 -6.5224326923e+02  6.5224326923e+02  0.0000000000e+00 0. 9.
        6     2     1     2   101     0 -1.5044502140e+02 -6.7453585746e+01 -8.8015644996e+01  2.5309237679e+02  1.7066138031e+02  3.072345e-13 9.
       -6     2     1     2     0   103  1.5044502140e+02  6.7453585746e+01 -4.5268811073e+02  5.1069040593e+02  1.6939443444e+02  1.299151e-13 9.
       24     2     3     0     0     0 -4.6653366330e+01  2.3658490796e+01 -4.3621279198e+01  1.0794411511e+02  8.3742791992e+01  1.765660e-14 9.
        5     1     3     0   101     0 -1.0379165507e+02 -9.1112076542e+01 -4.4394365797e+01  1.4514826168e+02  4.8000000000e+00 0. 9.
      -24     2     4     0     0     0  1.7446766471e+02  4.3904005049e+01 -4.1773566913e+02  4.6194224375e+02  8.0752830312e+01  2.327085e-14 9.
       -5     1     4     0     0   103 -2.4022643311e+01  2.3549580697e+01 -3.4952441603e+01  4.8748162188e+01  4.8000000000e+00 0. 9.
       -3     1     5     0     0   104 -4.6742492729e+01 -1.2967256388e+01  3.0408338916e+00  4.8605627611e+01  5.0000000000e-01 0. 9.
        4     1     5     0   104     0  8.9126398138e-02  3.6625747184e+01 -4.6662113090e+01  5.9338487496e+01  1.5000000000e+00 0. 9.
        3     1     7     0   105     0  3.7946000972e+01  2.7415879355e+01 -4.6197909690e+01  6.5772534467e+01  5.0000000000e-01 0. 9.
       -2     1     7     0     0   105  1.3652166374e+02  1.6488125694e+01 -3.7153775944e+02  3.9616970928e+02  3.3000000000e-01 0. 9.
#pdf   21   21  1.715993e-02  1.003451e-01  2.363856e+02  5.247005e+00  7.995876e-01
</event>
<event>
    12  9999  1.000000e+00  2.772304e+02  7.917301e-03  1.017070e-01
       21    -1     0     0   101   102  0.0000000000e+00  0.0000000000e+00  7.5659923784e+02  7.5659923784e+02  0.0000000000e+00 0. 9.
       21    -1     0     0   103   101  0.0000000000e+00  0.0000000000e+00 -6.2811313893e+02  6.2811313893e+02  0.0000000000e+00 0. 9.
        6     2     1     2   103     0 -2.0311398019e+02 -7.0389165086e+01 -5.6974537928e+02  6.3251528379e+02  1.7104345502e+02  2.739275e-13 9.
       -6     2     1     2     0   102  2.0311398019e+02  7.0389165086e+01  6.9823147819e+02  7.5219709298e+02  1.7906240823e+02  2.201512e-13 9.
       24     2     3     0     0     0 -9.7080156914e+01 -8.1227978051e+00 -1.5487093130e+02  1.9977503865e+02  8.0215484764e+01  8.916783e-14 9.
        5     1     3     0   103     0 -1.0603382327e+02 -6.2266367280e+01 -4.1487444799e+02  4.3274024514e+02  4.8000000000e+00 0. 9.
      -24     2     4     0     0     0  1.7940433016e+02  1.1583387874e+02  5.7336358662e+02  6.1713266447e+02  8.0644416732e+01  1.645250e-13 9.
       -5     1     4     0     0   102  2.3709650027e+01 -4.5444713651e+01  1.2486789157e+02  1.3506442851e+02  4.8000000000e+00 0. 9.
       -1     1     5     0     0   104 -7.9797997496e+01 -2.7108868391e+01 -1.5218031914e+02  1.7395852835e+02  3.3000000000e-01 0. 9.
        2     1     5     0   104     0 -1.7282159418e+01  1.8986070586e+01 -2.6906121524e+00  2.5816510302e+01  3.3000000000e-01 0. 9.
        1     1     7     0   105     0  1.3855057343e+00 -2.8851773157e+00 -1.6365808893e+00  3.6098713675e+00  3.3000000000e-01 0. 9.
       -2     1     7     0     0   105  1.7801882442e+02  1.1871905605e+02  5.7500016751e+02  6.1352279310e+02  3.3000000000e-01 0. 9.
#pdf   21   21  1.163999e-01  9.663279e-02  2.747104e+02  6.358621e-01  8.292659e-01
</event>
<event>
    12  9999  1.000000e+00  2.160193e+02  7.894690e-03  1.047557e-01
       21    -1     0     0   101   102  0.0000000000e+00  0.0000000000e+00  2.3841404524e+02  2.3841404524e+02  0.0000000000e+00 0. 9.
       21    -1     0     0   103   101  0.0000000000e+00  0.0000000000e+00 -9.7872969577e+02  9.7872969577e+02  0.0000000000e+00 0. 9.
        6     2     1     2   103     0  3.2162274741e+01  1.2759056631e+02 -9.1447863320e+02  9.3964072678e+02  1.7128852942e+02  1.001575e-13 9.
       -6     2     1     2     0   102 -3.2162274741e+01 -1.2759056631e+02  1.7416298267e+02  2.7750301423e+02  1.7135172554e+02  2.713447e-13 9.
       24     2     3     0     0     0 -3.2361876083e+01  3.2728294712e+01 -5.2496429020e+02  5.3355369176e+02  8.3508105590e+01  3.932984e-14 9.
        5     1     3     0   103     0  6.4524150824e+01  9.4862271599e+01 -3.8951434299e+02  4.0608703502e+02  4.8000000000e+00 0. 9.
      -24     2     4     0     0     0 -4.9812741599e+01 -3.1960658051e+01  1.4316395562e+02  1.7532376971e+02  8.2095755951e+01  1.616207e-13 9.
       -5     1     4     0     0   102  1.7650466858e+01 -9.5629908261e+01  3.0999027047e+01  1.0217924453e+02  4.8000000000e+00 0. 9.
      -11     1     5     0     0     0 -8.4329664300e+00  2.2254238130e+01 -3.1906121747e+01  3.9804103341e+01  5.1100000000e-04 0. 9.
       12     1     5     0     0     0 -2.3928909653e+01  1.0474056582e+01 -4.9305816846e+02  4.9374958842e+02  0.0000000000e+00 0. 9.
       15     1     7     0     0     0 -9.9183967729e+00  6.2684698782e+00  1.1050303040e+02  1.1113840527e+02  1.7768200000e+00  9.243147e-02 9.
      -16     1     7     0     0     0 -3.9894344827e+01 -3.8229127929e+01  3.2660925226e+01  6.4185364438e+01  0.0000000000e+00 0. 9.
#pdf   21   21  3.667908e-02  1.505738e-01  2.159943e+02  2.614973e+00  4.385523e-01
</event>
<event>
    12  9999  1.000000e+00  1.770512e+02  7.876753e-03  1.073228e-01
       21    -1     0     0   101   102  0.0000000000e+00  0.0000000000e+00  8.8854535473e+01  8.8854535473e+01  0.0000000000e+00 0. 9.
       21    -1     0     0   102   103  0.0000000000e+00  0.0000000000e+00 -3.5453945352e+02  3.5453945352e+02  0.0000000000e+00 0. 9.
        6     2     1     2   101     0 -4.0910921281e+01  1.9824480899e+01 -1.4865825642e+02  2.3144713487e+02  1.7146948858e+02  1.079348e-13 9.
       -6     2     1     2     0   103  4.0910921281e+01 -1.9824480899e+01 -1.1702666162e+02  2.1194685412e+02  1.7076157623e+02  1.489121e-13 9.
       24     2     3     0     0     0 -5.3582480897e+01 -4.0017188893e+01 -4.6689465746e+01  1.1244180668e+02  7.7400232630e+01  1.333647e-13 9.
        5     1     3     0   101     0  1.2671559616e+01  5.9841669792e+01 -1.0196879068e+02  1.1900532820e+02  4.8000000000e+00 0. 9.
      -24     2     4     0     0     0  7.1710761313e+01 -5.0219195751e+01 -1.2032028599e+02  1.6828500810e+02  7.8603255780e+01  2.106050e-13 9.
       -5     1     4     0     0   103 -3.0799840032e+01  3.0394714852e+01  3.2936243658e+00  4.3661846026e+01  4.8000000000e+00 0. 9.
       -1     1     5     0     0   104 -9.6842924540e+00 -2.9462771825e+01 -5.8110426407e+01  6.5869347963e+01  3.3000000000e-01 0. 9.
        2     1     5     0   104     0 -4.3898188443e+01 -1.0554417068e+01  1.1420960661e+01  4.6572458714e+01  3.3000000000e-01 0. 9.
        1     1     7     0   105     0  3.9039741380e+01 -4.2283651586e+01 -1.2171313993e+02  1.3463359881e+02  3.3000000000e-01 0. 9.
       -2     1     7     0     0   105  3.2671019933e+01 -7.9355441647e+00  1.3928539365e+00  3.3651409283e+01  3.3000000000e-01 0. 9.
#pdf   21   21  1.366993e-02  5.454453e-02  1.767094e+02  6.345879e+00  1.741365e+00
</event>
<event>
    12  9999  1.000000e+00  2.541040e+02  7.909391e-03  1.027508e-01
       21    -1     0     0   101   102  0.0000000000e+00  0.0000000000e+00  9.9511196705e+01  9.9511196705e+01  0.0000000000e+00 0. 9.
       21    -1     0     0   102   103  0.0000000000e+00  0.0000000000e+00 -6.8039680019e+02  6.8039680019e+02  0.0000000000e+00 0. 9.
        6     2     1     2   101     0 -1.5133257647e+02 -1.1248531588e+02 -2.0644930021e+02  3.2737077778e+02  1.7028158326e+02  7.642573e-14 9.
       -6     2     1     2     0   103  1.5133257647e+02  1.1248531588e+02 -3.7443630327e+02  4.5253721911e+02  1.7039041781e+02  1.386414e-13 9.
       24     2     3     0     0     0 -1.7215867356e+02 -8.2184596411e+01 -2.0248875791e+02  2.9008021845e+02  8.2170063195e+01  3.636577e-13 9.
        5     1     3     0   101     0  2.0826097089e+01 -3.0300719468e+01 -3.9605423008e+00  3.7290559335e+01  4.8000000000e+00 0. 9.
      -24     2     4     0     0     0  1.4056336204e+02  1.4569659859e+02 -3.2534975831e+02  3.9210962463e+02  8.3138047285e+01  1.820161e-13 9.
       -5     1     4     0     0   103  1.0769214427e+01 -3.3211282706e+01 -4.9086544962e+01  6.0427594481e+01  4.8000000000e+00 0. 9.
      -15     1     5     0     0     0 -1.2870708288e+02 -9.7655939508e+01 -1.5592148569e+02  2.2453699582e+02  1.7768200000e+00  9.653086e-02 9.
       16     1     5     0     0     0 -4.3451590677e+01  1.5471343097e+01 -4.6567272225e+01  6.5543222625e+01  0.0000000000e+00 0. 9.
        1     1     7     0   104     0  3.2223026228e+01 -2.8342805768e+00 -2.9442287718e+01  4.3741442269e+01  3.3000000000e-01 0. 9.
       -2     1     7     0     0   104  1.0834033582e+02  1.4853087916e+02 -2.9590747059e+02  3.4836818236e+02  3.3000000000e-01 0. 9.
#pdf   21   21  1.530941e-02  1.046764e-01  2.540675e+02  5.771402e+00  7.479238e-01
</event>
<event>
    12  9999  1.000000e+00  2.847601e+02  7.919737e-03  1.013902e-01
       21    -1     0     0   101   102  0.0000000000e+00  0.0000000000e+00  1.3533252337e+03  1.3533252337e+03  0.0000000000e+00 0. 9.
       21    -1     0     0   102   103  0.0000000000e+00  0.0000000000e+00 -1.4428848760e+02  1.4428848760e+02  0.0000000000e+00 0. 9.
        6     2     1     2   101     0  1.9539117447e+02 -1.1926669576e+02  1.1765009331e+03  1.2103088287e+03  1.6819857125e+02  1.148040e-13 9.
       -6     2     1     2     0   103 -1.9539117447e+02  1.1926669576e+02  3.2535812964e+01  2.8730489260e+02  1.7053816701e+02  2.583999e-14 9.
       24     2     3     0     0     0  1.1358437797e+02 -8.1158095069e+00  6.0811235927e+02  6.2538534449e+02  9.1317634267e+01  1.120015e-14 9.
        5     1     3     0   101     0  8.1806796498e+01 -1.1115088625e+02  5.6838857386e+02  5.8492348419e+02  4.8000000000e+00 0. 9.
      -24     2     4     0     0     0 -8.3980453094e+01  5.3474005649e+00 -2.2179273584e+01  1.1876191484e+02  8.0815599023e+01  2.429857e-13 9.
       -5     1     4     0     0   103 -1.1141072138e+02  1.1391929519e+02  5.4715086548e+01  1.6854297776e+02  4.8000000000e+00 0. 9.
       -3     1     5     0     0   104  4.4685620372e+01 -3.7343524495e+01  4.0004741284e+02  4.0426417849e+02  5.0000000000e-01 0. 9.
        4     1     5     0   104     0  6.8898757601e+01  2.9227714988e+01  2.0806494642e+02  2.2112116600e+02  1.5000000000e+00 0. 9.
        1     1     7     0   105     0 -7.5296949480e+01  1.2764657470e+01  1.6753057132e+01  7.8187856503e+01  3.3000000000e-01 0. 9.
       -2     1     7     0     0   105 -8.6835036139e+00 -7.4172569055e+00 -3.8932330717e+01  4.0574058338e+01  3.3000000000e-01 0. 9.
#pdf   21   21  2.082039e-01  2.219823e-02  2.840652e+02  2.312864e-01  4.171112e+00
</event>
<event>
    12  9999  1.000000e+00  2.265397e+02  7.898989e-03  1.041604e-01
       21    -1     0     0   101   102  0.0000000000e+00  0.0000000000e+00  1.0799826074e+02  1.0799826074e+02  0.0000000000e+00 0. 9.
       21    -1     0     0   102   103  0.0000000000e+00  0.0000000000e+00 -4.9979053793e+02  4.9979053793e+02  0.0000000000e+00 0. 9.
        6     2     1     2   101     0 -4.1998044334e+01  1.4351001871e+02 -1.2856711888e+02  2.6057089942e+02  1.7031948911e+02  3.569806e-13 9.
       -6     2     1     2     0   103  4.1998044334e+01 -1.4351001871e+02 -2.6322515831e+02  3.4721789925e+02  1.7004065512e+02  8.763427e-15 9.
       24     2     3     0     0     0  2.4184897291e+01  4.6845176552e+01 -2.2060546616e+01  1.0216962605e+02  8.4691114921e+01  2.400042e-14 9.
        5     1     3     0   101     0 -6.6182941624e+01  9.6664842154e+01 -1.0650657226e+02  1.5840127337e+02  4.8000000000e+00 0. 9.
      -24     2     4     0     0     0  8.0578871887e+01 -8.5039779414e+01 -1.1323712439e+02  1.8160781665e+02  8.0212430785e+01  6.632109e-14 9.
       -5     1     4     0     0   103 -3.8580827553e+01 -5.8470239291e+01 -1.4998803393e+02  1.6561008260e+02  4.8000000000e+00 0. 9.
       -3     1     5     0     0   104 -1.1713009361e+01 -1.8335796439e+00  2.3570464972e+01  2.6388888222e+01  5.0000000000e-01 0. 9.
        4     1     5     0   104     0  3.5897906652e+01  4.8678756196e+01 -4.5631011588e+01  7.5780737825e+01  1.5000000000e+00 0. 9.
       15     1     7     0     0     0  3.6593642929e+01 -5.9085884336e+01 -1.5347642607e+01  7.1196514335e+01  1.7768200000e+00  1.764745e-01 9.
      -16     1     7     0     0     0  4.3985228958e+01 -2.5953895079e+01 -9.7889481782e+01  1.1041130232e+02  0.0000000000e+00 0. 9.
#pdf   21   21  1.661512e-02  7.689085e-02  2.264349e+02  5.395700e+00  1.139860e+00
</event>
<event>
    12  9999  1.000000e+00  1.984700e+02  7.887040e-03  1.058338e-01
       21    -1     0     0   101   102  0.0000000000e+00  0.0000000000e+00  4.6462949154e+01  4.6462949154e+01  0.0000000000e+00 0. 9.
       21    -1     0     0   103   101  0.0000000000e+00  0.0000000000e+00 -8.4981699700e+02  8.4981699700e+02  0.0000000000e+00 0. 9.
        6     2     1     2   103     0 -2.4511532648e+00  1.0001262058e+02 -4.2247393926e+02  4.6653750267e+02  1.7077610963e+02  5.615120e-14 9.
       -6     2     1     2     0   102  2.4511532648e+00 -1.0001262058e+02 -3.8088010859e+02  4.2974244348e+02  1.7204760441e+02  5.279526e-13 9.
       24     2     3     0     0     0 -5.4520286830e+01  8.6081685048e+01 -3.5618348686e+02  3.8096455301e+02  8.8796374697e+01  3.920540e-14 9.
        5     1     3     0   103     0  5.2069133566e+01  1.3930935530e+01 -6.6290452395e+01  8.5572949662e+01  4.8000000000e+00 0. 9.
      -24     2     4     0     0     0  3.5409784388e+01 -8.5454695244e+01 -1.3891103571e+02  1.8505840889e+02  7.9962372957e+01  4.009410e-15 9.
       -5     1     4     0     0   102 -3.2958631123e+01 -1.4557925335e+01 -2.4196907287e+02  2.4468403459e+02  4.8000000000e+00 0. 9.
      -13     1     5     0     0     0 -6.0480577896e+01  8.2294818963e+01 -3.5908800418e+02  3.7332900161e+02  1.0566000000e-01  1.655124e+05 9.
       14     1     5     0     0     0  5.9602910651e+00  3.7868660856e+00  2.9045173198e+00  7.6355514006e+00  0.0000000000e+00 0. 9.
        3     1     7     0   104     0 -1.7762470333e+01 -2.3962444649e+01 -7.8874426580e+00  3.0857184861e+01  5.0000000000e-01 0. 9.
       -4     1     7     0     0   104  5.3172254721e+01 -6.1492250595e+01 -1.3102359306e+02  1.5420122403e+02  1.5000000000e+00 0. 9.
#pdf   21   21  7.148146e-03  1.307411e-01  1.979217e+02  1.043569e+01  5.553760e-01
</event>
<event>
    12  9999  1.000000e+00  1.905494e+02  7.883368e-03  1.063600e-01
       21    -1     0     0   101   102  0.0000000000e+00  0.0000000000e+00  1.7081961055e+02  1.7081961055e+02  0.0000000000e+00 0. 9.
       21    -1     0     0   103   101  0.0000000000e+00  0.0000000000e+00 -4.2688295672e+02  4.2688295672e+02  0.0000000000e+00 0. 9.
        6     2     1     2   103     0 -6.8416573033e+01  4.5612297546e+01 -3.4004356507e+02  3.9017121534e+02  1.7275023004e+02  4.161572e-14 9.
       -6     2     1     2     0   102  6.8416573033e+01 -4.5612297546e+01  8.3980218909e+01  2.0753135193e+02  1.7104173676e+02  2.950087e-14 9.
       24     2     3     0     0     0 -4.2231726592e+01  8.3301271182e+01 -1.4842792789e+02  1.9307809692e+02  8.0781688641e+01  9.132557e-14 9.
        5     1     3     0   103     0 -2.6184846442e+01 -3.7688973636e+01 -1.9161563718e+02  1.9709311842e+02  4.8000000000e+00 0. 9.
      -24     2     4     0     0     0 -1.5674732082e+01  1.6478169381e+01  3.1655258666e+01  9.0537697645e+01  8.1717758178e+01  2.124722e-13 9.
       -5     1     4     0     0   102  8.4091305116e+01 -6.2090466926e+01  5.2324960243e+01  1.1699365429e+02  4.8000000000e+00 0. 9.
      -11     1     5     0     0     0  2.4360493489e+01  2.2608382743e+01 -4.4274683996e+01  5.5360818785e+01  5.1100000000e-04 0. 9.
       12     1     5     0     0     0 -6.6592220081e+01  6.0692888439e+01 -1.0415324390e+02  1.3771727813e+02  0.0000000000e+00 0. 9.
        3     1     7     0   104     0 -2.7406541881e+00  2.1120128084e+01  5.7449933654e+01  6.1272472388e+01  5.0000000000e-01 0. 9.
       -4     1     7     0     0   104 -1.2934077894e+01 -4.6419587029e+00 -2.5794674988e+01  2.9265225257e+01  1.5000000000e+00 0. 9.
#pdf   21   21  2.627994e-02  6.567430e-02  1.897804e+02  3.619495e+00  1.401212e+00
</event>
<event>
    12  9999  1.000000e+00  2.224727e+02  7.897351e-03  1.043864e-01
       21    -1     0     0   101   102  0.0000000000e+00  0.0000000000e+00  4.8513435608e+01  4.8513435608e+01  0.0000000000e+00 0. 9.
       21    -1     0     0   103   101  0.0000000000e+00  0.0000000000e+00 -1.0366452594e+03  1.0366452594e+03  0.0000000000e+00 0. 9.
        6     2     1     2   103     0  2.7470434106e+00 -1.4297975416e+02 -5.6003387180e+02  6.0221868987e+02  1.6905223014e+02  2.759935e-13 9.
       -6     2     1     2     0   102 -2.7470434106e+00  1.4297975416e+02 -4.2809795201e+02  4.8294000516e+02  1.7179183834e+02  7.611015e-14 9.
       24     2     3     0     0     0 -2.4807219988e+01 -7.9985075590e+01 -1.8251917637e+02  2.1846362185e+02  8.6023798163e+01  2.677034e-13 9.
        5     1     3     0   103     0  2.7554263399e+01 -6.2994678571e+01 -3.7751469544e+02  3.8375506802e+02  4.8000000000e+00 0. 9.
      -24     2     4     0     0     0  5.7168838020e+01  1.1877568381e+02 -3.3159115160e+02  3.6669736068e+02  8.4488599282e+01  1.064740e-15 9.
       -5     1     4     0     0   102 -5.9915881430e+01  2.4204070355e+01 -9.6506800417e+01  1.1624264448e+02  4.8000000000e+00 0. 9.
       -3     1     5     0     0   104  1.6322682011e+01 -5.4413876543e+01 -1.4922413106e+02  1.5967276286e+02  5.0000000000e-01 0. 9.
        4     1     5     0   104     0 -4.1129902000e+01 -2.5571199046e+01 -3.3295045308e+01  5.8790858994e+01  1.5000000000e+00 0. 9.
        3     1     7     0   105     0  2.1148763710e+01  1.1471602616e+02 -2.8265877050e+02  3.0578303976e+02  5.0000000000e-01 0. 9.
       -4     1     7     0     0   105  3.6020074310e+01  4.0596576498e+00 -4.8932381095e+01  6.0914320920e+01  1.5000000000e+00 0. 9.
#pdf   21   21  7.463605e-03  1.594839e-01  2.214259e+02  1.013399e+01  3.967936e-01
</event>
<event>
    12  9999  1.000000e+00  2.061222e+02  7.890454e-03  1.053497e-01
       21    -1     0     0   101   102  0.0000000000e+00  0.0000000000e+00  3.5208506792e+01  3.5208506792e+01  0.0000000000e+00 0. 9.
       21    -1     0     0   103   101  0.0000000000e+00  0.0000000000e+00 -1.2135451851e+03  1.2135451851e+03  0.0000000000e+00 0. 9.
        6     2     1     2   103     0 -6.9318154885e+01  8.7489530607e+01 -5.3691555902e+02  5.7439805263e+02  1.7086655840e+02  3.192630e-14 9.
       -6     2     1     2     0   102  6.9318154885e+01 -8.7489530607e+01 -6.4142111932e+02  6.7435563930e+02  1.7571298012e+02  1.651241e-13 9.
       24     2     3     0     0     0 -7.4880300972e+01  4.5483926964e+01 -2.0269032942e+02  2.3746341162e+02  8.7347897129e+01  2.802749e-14 9.
        5     1     3     0   103     0  5.5621460870e+00  4.2005603644e+01 -3.3422522960e+02  3.3693464101e+02  4.8000000000e+00 0. 9.
      -24     2     4     0     0     0 -3.7724967184e-01 -5.8581872470e+01 -2.1196043598e+02  2.3829071220e+02  9.1778314422e+01  3.490051e-14 9.
       -5     1     4     0     0   102  6.9695404557e+01 -2.8907658137e+01 -4.2946068334e+02  4.3606492711e+02  4.8000000000e+00 0. 9.
       -3     1     5     0     0   104 -6.3065235688e+01 -2.2557453728e+00 -1.6116327114e+02  1.7307848596e+02  5.0000000000e-01 0. 9.
        4     1     5     0   104     0 -1.1815065284e+01  4.7739672336e+01 -4.1527058283e+01  6.4384925659e+01  1.5000000000e+00 0. 9.
        1     1     7     0   105     0  8.3113080376e+00 -6.5981972331e+01 -7.2571353577e+01  9.8434794529e+01  3.3000000000e-01 0. 9.
       -2     1     7     0     0   105 -8.6885577095e+00  7.4000998605e+00 -1.3938908240e+02  1.3985591767e+02  3.3000000000e-01 0. 9.
#pdf   21   21  5.416693e-03  1.866993e-01  2.040951e+02  1.274377e+01  3.033433e-01
</event>
<event>
    12  9999  1.000000e+00  3.446219e+02  7.937128e-03  9.919097e-02
        1    -1     0     0   101     0  0.0000000000e+00  0.0000000000e+00  1.0556697546e+03  1.0556697546e+03  0.0000000000e+00 0. 9.
       -1    -1     0     0     0   102  0.0000000000e+00  0.0000000000e+00 -1.1258579694e+02  1.1258579694e+02  0.0000000000e+00 0. 9.
        6     2     1     2   101     0  1.5927653701e+01 -2.9863831553e+02  4.8763145313e+02  5.9715638020e+02  1.7138487294e+02  7.534570e-14 9.
       -6     2     1     2     0   102 -1.5927653701e+01  2.9863831553e+02  4.5545250450e+02  5.7109917131e+02  1.7111033273e+02  3.239522e-14 9.
       24     2     3     0     0     0 -2.2089500517e+01 -5.6638911646e+01  1.4250994684e+02  1.7390597016e+02  7.8982840934e+01  1.760442e-14 9.
        5     1     3     0   101     0  3.8017154218e+01 -2.4199940388e+02  3.4512150629e+02  4.2325041004e+02  4.8000000000e+00 0. 9.
      -24     2     4     0     0     0 -2.9780636866e+01  1.3241347431e+02  1.2334471159e+02  1.9942561954e+02  7.8335466673e+01  2.011930e-13 9.
       -5     1     4     0     0   102  1.3852983165e+01  1.6622484122e+02  3.3210779291e+02  3.7167355178e+02  4.8000000000e+00 0. 9.
      -11     1     5     0     0     0 -1.2795848969e+01 -1.9820809841e+01  1.3257098392e+02  1.3465386749e+02  5.1100000000e-04 0. 9.
       12     1     5     0     0     0 -9.2936515482e+00 -3.6818101804e+01  9.9389629244e+00  3.9252102665e+01  0.0000000000e+00 0. 9.
       13     1     7     0     0     0 -1.9827336531e+01  1.3385831977e+02  1.2977294755e+02  1.8748920536e+02  1.0566000000e-01  9.006572e+05 9.
      -14     1     7     0     0     0 -9.9533003346e+00 -1.4448454638e+00 -6.4282359548e+00  1.1936414179e+01  0.0000000000e+00 0. 9.
#pdf    1   -1  1.624107e-01  1.732089e-02  3.445537e+02  2.562448e-01  4.059829e-01
</event>
<event>
    12  9999  1.000000e+00  1.822771e+02  7.879371e-03  1.069395e-01
        1    -1     0     0   101     0  0.0000000000e+00  0.0000000000e+00  1.3060742980e+03  1.3060742980e+03  0.0000000000e+00 0. 9.
       -1    -1     0     0     0   102  0.0000000000e+00  0.0000000000e+00 -2.5452437318e+01  2.5452437318e+01  0.0000000000e+00 0. 9.
        6     2     1     2   101     0  5.9067997924e+01 -2.2430654878e+01  6.2672881321e+02  6.5283544934e+02  1.7150205812e+02  9.419377e-14 9.
       -6     2     1     2     0   102 -5.9067997924e+01  2.2430654878e+01  6.5389304752e+02  6.7869128603e+02  1.7045111172e+02  6.855404e-14 9.
       24     2     3     0     0     0 -3.9567262271e+00  2.7780968957e+01  1.8932041235e+02  2.0804058407e+02  8.1555062187e+01  9.436999e-14 9.
        5     1     3     0   101     0  6.3024724152e+01 -5.0211623835e+01  4.3740840086e+02  4.4479486527e+02  4.8000000000e+00 0. 9.
      -24     2     4     0     0     0 -6.9736306178e+01 -5.3792364870e+00  2.3125066855e+02  2.5497342783e+02  8.1501463853e+01  1.822194e-13 9.
       -5     1     4     0     0   102  1.0668308254e+01  2.7809891365e+01  4.2264237897e+02  4.2371785820e+02  4.8000000000e+00 0. 9.
       -1     1     5     0     0   103  1.5321228844e+00  4.6862982960e+01  1.8017697214e+02  1.8617823923e+02  3.3000000000e-01 0. 9.
        2     1     5     0   103     0 -5.4888491115e+00 -1.9082014003e+01  9.1434402068e+00  2.1862344837e+01  3.3000000000e-01 0. 9.
       13     1     7     0     0     0 -4.3117157094e+01  3.1614406385e+01  1.7263375928e+02  1.8072350686e+02  1.0566000000e-01  5.321172e+05 9.
      -14     1     7     0     0     0 -2.6619149084e+01 -3.6993642872e+01  5.8616909275e+01  7.4249920968e+01  0.0000000000e+00 0. 9.
#pdf    1   -1  2.009345e-01  3.915760e-03  1.817849e+02  2.208422e-01  8.714961e-01
</event>
<event>
    12  9999  1.000000e+00  2.710928e+02  7.915266e-03  1.019732e-01
       21    -1     0     0   101   102  0.0000000000e+00  0.0000000000e+00  1.4389224116e+02  1.4389224116e+02  0.0000000000e+00 0. 9.
       21    -1     0     0   103   101  0.0000000000e+00  0.0000000000e+00 -1.4813858305e+03  1.4813858305e+03  0.0000000000e+00 0. 9.
        6     2     1     2   103     0  1.8452259144e+02 -1.0042567738e+02 -1.3264870213e+03  1.3538909242e+03  1.7122766585e+02  1.133514e-13 9.
       -6     2     1     2     0   102 -1.8452259144e+02  1.0042567738e+02 -1.1006568039e+01  2.7138714744e+02  1.7145243022e+02  8.398096e-14 9.
       24     2     3     0     0     0  9.7741523848e+01 -9.2982323536e+01 -1.1013335863e+03  1.1124298166e+03  7.9782896093e+01  7.271872e-14 9.
        5     1     3     0   103     0  8.6781067591e+01 -7.4433538488e+00 -2.2515343493e+02  2.4146110758e+02  4.8000000000e+00 0. 9.
      -24     2     4     0     0     0 -3.9236272194e+01  4.0567315060e+01  4.0175833846e+01  1.0605772973e+02  8.0305369078e+01  1.906446e-13 9.
       -5     1     4     0     0   102 -1.4528631924e+02  5.9858362324e+01 -5.1182401885e+01  1.6532941772e+02  4.8000000000e+00 0. 9.
       -1     1     5     0     0   104 -9.5219508195e+00 -3.1275886728e+00 -2.3482002502e+01  2.5533560265e+01  3.3000000000e-01 0. 9.
        2     1     5     0   104     0  1.0726347467e+02 -8.9854734863e+01 -1.0778515838e+03  1.0868962563e+03  3.3000000000e-01 0. 9.
        1     1     7     0   105     0 -5.0943220171e+01  2.2722689306e+01 -5.0880312009e+00  5.6013652373e+01  3.3000000000e-01 0. 9.
       -2     1     7     0     0   105  1.1706947977e+01  1.7844625754e+01  4.5263865047e+01  5.0044077354e+01  3.3000000000e-01 0. 9.
#pdf   21   21  2.213727e-02  2.279055e-01  2.710218e+02  4.186713e+00  1.920563e-01
</event>
<event>
    12  9999  1.000000e+00  2.295952e+02  7.900202e-03  1.039939e-01
       21    -1     0     0   101   102  0.0000000000e+00  0.0000000000e+00  3.1016927315e+02  3.1016927315e+02  0.0000000000e+00 0. 9.
       21    -1     0     0   103   101  0.0000000000e+00  0.0000000000e+00 -3.4771207729e+02  3.4771207729e+02  0.0000000000e+00 0. 9.
        6     2     1     2   103     0 -4.0187845285e+00 -1.5383025866e+02 -2.5397620191e+02  3.4257237095e+02  1.7079818234e+02  5.402851e-14 9.
       -6     2     1     2     0   102  4.0187845285e+00  1.5383025866e+02  2.1643339777e+02  3.1530897949e+02  1.6998952252e+02  2.552841e-13 9.
       24     2     3     0     0     0  4.7752829869e+01 -1.1216159064e+02 -2.2894959025e+02  2.7139688891e+02  7.9861137339e+01  1.457985e-13 9.
        5     1     3     0   103     0 -5.1771614398e+01 -4.1668668026e+01 -2.5026611656e+01  7.1175482038e+01  4.8000000000e+00 0. 9.
      -24     2     4     0     0     0 -3.0989006947e+01  6.5281512925e+01  3.9376884899e+01  1.1421578073e+02  7.9200448377e+01  2.196591e-13 9.
       -5     1     4     0     0   102  3.5007791476e+01  8.8548745737e+01  1.7705651287e+02  2.0109319876e+02  4.8000000000e+00 0. 9.
       -3     1     5     0     0   104  8.4111572079e+00 -9.5161244303e+01 -1.9334357383e+02  2.1565805694e+02  5.0000000000e-01 0. 9.
        4     1     5     0   104     0  3.9341672662e+01 -1.7000346333e+01 -3.5606016422e+01  5.5738831964e+01  1.5000000000e+00 0. 9.
       15     1     7     0     0     0  3.0275202752e+00 -1.1406578661e+01 -1.1107164476e+01  1.6303438526e+01  1.7768200000e+00  2.797923e-03 9.
      -16     1     7     0     0     0 -3.4016527222e+01  7.6688091586e+01  5.0484049375e+01  9.7912342208e+01  0.0000000000e+00 0. 9.
#pdf   21   21  4.771835e-02  5.349417e-02  2.292953e+02  1.982131e+00  1.748506e+00
</event>
<event>
    12  9999  1.000000e+00  1.713301e+02  7.873799e-03  1.077590e-01
       21    -1     0     0   101   102  0.0000000000e+00  0.0000000000e+00  1.5400744488e+02  1.5400744488e+02  0.0000000000e+00 0. 9.
       21    -1     0     0   102   103  0.0000000000e+00  0.0000000000e+00 -1.9083013422e+02  1.9083013422e+02  0.0000000000e+00 0. 9.
        6     2     1     2   101     0  1.0931144345e+01  1.8069723854e+01 -1.2406911013e+01  1.7108950537e+02  1.6932714659e+02  1.215307e-13 9.
       -6     2     1     2     0   103 -1.0931144345e+01 -1.8069723854e+01 -2.4415778325e+01  1.7374807372e+02  1.7072275201e+02  8.908176e-14 9.
       24     2     3     0     0     0 -8.2802963367e+00 -3.7574174883e+01 -5.1457227675e+01  1.0028491406e+02  7.6998933646e+01  3.810804e-14 9.
        5     1     3     0   101     0  1.9211440681e+01  5.5643898737e+01  3.9050316662e+01  7.0804591313e+01  4.8000000000e+00 0. 9.
      -24     2     4     0     0     0  1.8173920299e+00  4.7397200756e+01 -4.4471827955e+01  1.0393597933e+02  8.1087278678e+01  8.018428e-14 9.
       -5     1     4     0     0   103 -1.2748536375e+01 -6.5466924610e+01  2.0056049630e+01  6.9812094398e+01  4.8000000000e+00 0. 9.
       -1     1     5     0     0   104 -1.4366365107e+01  2.1358152722e+01 -2.3160197392e+01  3.4627543623e+01  3.3000000000e-01 0. 9.
        2     1     5     0   104     0  6.0860687705e+00 -5.8932327605e+01 -2.8297030283e+01  6.5657370438e+01  3.3000000000e-01 0. 9.
       13     1     7     0     0     0  3.0183714655e+01 -7.7581009005e+00 -2.1196972947e+01  3.7690417696e+01  1.0566000000e-01  2.112394e+06 9.
      -14     1     7     0     0     0 -2.8366322625e+01  5.5155301656e+01 -2.3274855008e+01  6.6245561630e+01  0.0000000000e+00 0. 9.
#pdf   21   21  2.369345e-02  2.935848e-02  1.706391e+02  3.986065e+00  3.276122e+00
</event>
<event>
    12  9999  1.000000e+00  2.006883e+02  7.888042e-03  1.056911e-01
       -1    -1     0     0     0   101  0.0000000000e+00  0.0000000000e+00  1.2444877178e+02  1.2444877178e+02  0.0000000000e+00 0. 9.
        1    -1     0     0   102     0  0.0000000000e+00  0.0000000000e+00 -3.5586545388e+02  3.5586545388e+02  0.0000000000e+00 0. 9.
       -6     2     1     2     0   101  3.3303108574e+01 -1.0090264160e+02 -1.8826639247e+02  2.7556923936e+02  1.7089099165e+02  3.342899e-13 9.
        6     2     1     2   102     0 -3.3303108574e+01  1.0090264160e+02 -4.3150289634e+01  2.0474498629e+02  1.6961167942e+02  5.610330e-14 9.
      -24     2     3     0     0     0  8.3291067717e+01 -7.4638265844e+01 -9.8938335810e+01  1.6978098293e+02  8.0799227606e+01  6.042294e-14 9.
       -5     1     3     0     0   101 -4.9987959142e+01 -2.6264375753e+01 -8.9328056660e+01  1.0578825643e+02  4.8000000000e+00 0. 9.
       24     2     4     0     0     0  7.1735465022e+00 -9.8007074591e+00 -2.9894860553e+01  8.6033834761e+01  7.9753397420e+01  3.813640e-14 9.
        5     1     4     0   102     0 -4.0476655077e+01  1.1070334906e+02 -1.3255429081e+01  1.1871115153e+02  4.8000000000e+00 0. 9.
        3     1     5     0   103     0  3.3953975802e+01 -6.6259050064e+01 -9.3348195640e+01  1.1940380989e+02  5.0000000000e-01 0. 9.
       -4     1     5     0     0   103  4.9337091915e+01 -8.3792157795e+00 -5.5901401696e+00  5.0377173033e+01  1.5000000000e+00 0. 9.
       -3     1     7     0     0   104  3.3270641870e+01 -2.6294594308e+01  9.1078132124e-01  4.2419580654e+01  5.0000000000e-01 0. 9.
        2     1     7     0   104     0 -2.6097095368e+01  1.6493886849e+01 -3.0805641874e+01  4.3614254107e+01  3.3000000000e-01 0. 9.
#pdf   -1    1  1.914596e-02  5.474853e-02  2.001464e+02  3.758611e-01  4.229917e-01
</event>
<event>
    12  9999  1.000000e+00  2.131261e+02  7.893471e-03  1.049258e-01
       -4    -1     0     0     0   101  0.0000000000e+00  0.0000000000e+00  3.2326747508e+02  3.2326747508e+02  0.0000000000e+00 0. 9.
        4    -1     0     0   102     0  0.0000000000e+00  0.0000000000e+00 -1.4158504020e+02  1.4158504020e+02  0.0000000000e+00 0. 9.
       -6     2     1     2     0   101  8.4282149640e+01  9.5407077625e+01  1.1091207776e+02  2.3991189588e+02  1.7044130245e+02  2.385476e-13 9.
        6     2     1     2   102     0 -8.4282149640e+01 -9.5407077625e+01  7.0770357123e+01  2.2494061940e+02  1.7141717417e+02  2.842780e-13 9.
      -24     2     3     0     0     0  2.3663468499e+01  5.1902391024e+01  1.3061405731e+02  1.6259119841e+02  7.8243516649e+01  4.967260e-14 9.
       -5     1     3     0     0   101  6.0618681141e+01  4.3504686601e+01 -1.9701979546e+01  7.7320697472e+01  4.8000000000e+00 0. 9.
       24     2     4     0     0     0 -1.1296040979e+02 -1.0186095737e+02  8.0701723137e+01  1.9354368962e+02  8.8378067743e+01  2.543001e-13 9.
        5     1     4     0   102     0  2.8678260147e+01  6.4538797461e+00 -9.9313660144e+00  3.1396929782e+01  4.8000000000e+00 0. 9.
        3     1     5     0   103     0  1.3208381854e+01  2.0115547018e+01 -3.5312070432e+00  2.4327268778e+01  5.0000000000e-01 0. 9.
       -4     1     5     0     0   103  1.0455086645e+01  3.1786844007e+01  1.3414526435e+02  1.3826392963e+02  1.5000000000e+00 0. 9.
      -11     1     7     0     0     0  1.3795187768e+01 -1.8623072812e+01  3.6955415122e+00  2.3468768052e+01  5.1100000000e-04 0. 9.
       12     1     7     0     0     0 -1.2675559755e+02 -8.3237884559e+01  7.7006181625e+01  1.7007492157e+02  0.0000000000e+00 0. 9.
#pdf   -4    4  4.973346e-02  2.178231e-02  2.127351e+02  8.245023e-02  1.784285e-01
</event>
<event>
    12  9999  1.000000e+00  1.778314e+02  7.877148e-03  1.072647e-01
       21    -1     0     0   101   102  0.0000000000e+00  0.0000000000e+00  7.5708363568e+01  7.5708363568e+01  0.0000000000e+00 0. 9.
       21    -1     0     0   103   101  0.0000000000e+00  0.0000000000e+00 -1.9191434140e+03  1.9191434140e+03  0.0000000000e+00 0. 9.
        6     2     1     2   103     0 -4.2026489370e+01  2.3582899670e+01 -1.8060296182e+03  1.8149487838e+03  1.7312922060e+02  7.758829e-14 9.
       -6     2     1     2     0   102  4.2026489370e+01 -2.3582899670e+01 -3.7405432221e+01  1.7990299376e+02  1.6924403044e+02  4.096643e-13 9.
       24     2     3     0     0     0 -5.7907236622e+01  7.4586652072e+01 -1.1275561619e+03  1.1343587076e+03  8.0438564045e+01  5.087318e-14 9.
        5     1     3     0   103     0  1.5880747253e+01 -5.1003752402e+01 -6.7847345633e+02  6.8059007621e+02  4.8000000000e+00 0. 9.
      -24     2     4     0     0     0  5.4758125019e+00 -6.7692234128e+01  1.4210862191e+01  1.0264454947e+02  7.5642130107e+01  3.867090e-14 9.
       -5     1     4     0     0   102  3.6550676868e+01  4.4109334458e+01 -5.1616294412e+01  7.7258444293e+01  4.8000000000e+00 0. 9.
       -3     1     5     0     0   104 -5.4269450120e+01  4.1578476336e+01 -1.0065616904e+03  1.0088808798e+03  5.0000000000e-01 0. 9.
        4     1     5     0   104     0 -3.6377865020e+00  3.3008175736e+01 -1.2099447143e+02  1.2547782781e+02  1.5000000000e+00 0. 9.
        3     1     7     0   105     0  3.0126670651e+01 -6.5782479672e+01  2.3672570759e+01  7.6128782485e+01  5.0000000000e-01 0. 9.
       -4     1     7     0     0   105 -2.4650858149e+01 -1.9097544562e+00 -9.4617085685e+00  2.6515766981e+01  1.5000000000e+00 0. 9.
#pdf   21   21  1.164744e-02  2.952528e-01  1.759714e+02  7.203986e+00  1.097498e-01
</event>
<event>
    12  9999  1.000000e+00  2.213532e+02  7.896895e-03  1.044495e-01
       21    -1     0     0   101   102  0.0000000000e+00  0.0000000000e+00  4.6362306763e+02  4.6362306763e+02  0.0000000000e+00 0. 9.
       21    -1     0     0   103   101  0.0000000000e+00  0.0000000000e+00 -1.2571192549e+02  1.2571192549e+02  0.0000000000e+00 0. 9.
        6     2     1     2   103     0  1.3731043458e+02 -3.2318031817e+01  5.1297039097e+01  2.2715585350e+02  1.7049863617e+02  1.988255e-14 9.
       -6     2     1     2     0   102 -1.3731043458e+02  3.2318031817e+01  2.8661410304e+02  3.6217913962e+02  1.7066773125e+02  3.659508e-14 9.
       24     2     3     0     0     0  1.4177478630e+02 -3.1609204551e+01 -9.2920478197e+00  1.6620907077e+02  8.0248870459e+01  1.273079e-13 9.
        5     1     3     0   103     0 -4.4643517171e+00 -7.0882726585e-01  6.0589086917e+01  6.0946782735e+01  4.8000000000e+00 0. 9.
      -24     2     4     0     0     0 -1.0001102041e+02  4.6839670995e+01  9.3284794776e+01  1.6469145460e+02  7.8899070339e+01  4.898290e-14 9.
       -5     1     4     0     0   102 -3.7299414176e+01 -1.4521639178e+01  1.9332930826e+02  1.9748768502e+02  4.8000000000e+00 0. 9.
      -11     1     5     0     0     0 -7.4822298599e+00 -9.9653778349e+00 -9.0322347707e+00  1.5390704476e+01  5.1100000000e-04 0. 9.
       12     1     5     0     0     0  1.4925701616e+02 -2.1643826716e+01 -2.5981304906e-01  1.5081836629e+02  0.0000000000e+00 0. 9.
        3     1     7     0   104     0 -2.9249230025e+01 -2.1900150531e+01  1.8987585467e+01  4.1181457626e+01  5.0000000000e-01 0. 9.
       -4     1     7     0     0   104 -7.0761790380e+01  6.8739821526e+01  7.4297209309e+01  1.2350999697e+02  1.5000000000e+00 0. 9.
#pdf   21   21  7.132663e-02  1.934030e-02  2.212880e+02  1.253317e+00  4.740390e+00
</event>
<event>
    12  9999  1.000000e+00  2.222391e+02  7.897256e-03  1.043996e-01
       21    -1     0     0   101   102  0.0000000000e+00  0.0000000000e+00  6.1876126664e+02  6.1876126664e+02  0.0000000000e+00 0. 9.
       21    -1     0     0   102   103  0.0000000000e+00  0.0000000000e+00 -9.4348700547e+01  9.4348700547e+01  0.0000000000e+00 0. 9.
        6     2     1     2   101     0 -1.2920587471e+02 -5.9482927814e+01  4.0240587955e+02  4.5983618916e+02  1.7113284959e+02  6.393058e-13 9.
       -6     2     1     2     0   103  1.2920587471e+02  5.9482927814e+01  1.2200668654e+02  2.5327377802e+02  1.7038074513e+02  1.373223e-13 9.
       24     2     3     0     0     0 -1.1020521118e+02 -4.0903976171e+01  4.0797717983e+02  4.3226297671e+02  8.1163895465e+01  2.879182e-14 9.
        5     1     3     0   101     0 -1.9000663522e+01 -1.8578951643e+01 -5.5713002835e+00  2.7573212458e+01  4.8000000000e+00 0. 9.
      -24     2     4     0     0     0  8.6212190614e+01  7.0220954581e+01  1.2330374674e+01  1.3488587545e+02  7.5356731506e+01  4.405735e-14 9.
       -5     1     4     0     0   103  4.2993684091e+01 -1.0738026767e+01  1.0967631186e+02  1.1838790257e+02  4.8000000000e+00 0. 9.
       -1     1     5     0     0   104  9.3645456396e+00 -1.8469114240e+01  7.2879670710e+01  7.5765151611e+01  3.3000000000e-01 0. 9.
        2     1     5     0   104     0 -1.1956975682e+02 -2.2434861932e+01  3.3509750912e+02  3.5649782509e+02  3.3000000000e-01 0. 9.
        1     1     7     0   105     0  2.4661374525e+01  6.7829634024e+00 -2.7829545567e+01  3.7799265766e+01  3.3000000000e-01 0. 9.
       -2     1     7     0     0   105  6.1550816089e+01  6.3437991178e+01  4.0159920241e+01  9.7086609683e+01  3.3000000000e-01 0. 9.
#pdf   21   21  9.519404e-02  1.451518e-02  2.219504e+02  8.650320e-01  6.039484e+00
</event>
<event>
    12  9999  1.000000e+00  2.027950e+02  7.888985e-03  1.055574e-01
        2    -1     0     0   101     0  0.0000000000e+00  0.0000000000e+00  6.2285913394e+02  6.2285913394e+02  0.0000000000e+00 0. 9.
       -2    -1     0     0     0   102  0.0000000000e+00  0.0000000000e+00 -1.3542182092e+02  1.3542182092e+02  0.0000000000e+00 0. 9.
        6     2     1     2   101     0 -1.0657748457e+02  3.1128238934e+01 -2.7000402092e+01  2.0573750245e+02  1.7108819575e+02  2.144060e-13 9.
       -6     2     1     2     0   102  1.0657748457e+02 -3.1128238934e+01  5.1443771511e+02  5.5254345241e+02  1.6831629927e+02  8.836065e-14 9.
       24     2     3     0     0     0 -1.0445539470e+02 -3.2743910110e+01 -3.5600590772e+00  1.3749789248e+02  8.3125828017e+01  7.980937e-14 9.
        5     1     3     0   101     0 -2.1220898651e+00  6.3872149044e+01 -2.3440343015e+01  6.8239609975e+01  4.8000000000e+00 0. 9.
      -24     2     4     0     0     0 -2.9660912353e+00 -3.6262739682e+01  1.8349446085e+02  2.0387077548e+02  8.1051168695e+01  1.043283e-14 9.
       -5     1     4     0     0   102  1.0954357580e+02  5.1345007484e+00  3.3094325426e+02  3.4867267693e+02  4.8000000000e+00 0. 9.
      -11     1     5     0     0     0 -2.6125459416e+01 -4.8819295088e+01 -1.3297841251e+01  5.6944673015e+01  5.1100000000e-04 0. 9.
       12     1     5     0     0     0 -7.8329935285e+01  1.6075384978e+01  9.7377821737e+00  8.0553219462e+01  0.0000000000e+00 0. 9.
       11     1     7     0     0     0  1.2588337498e+01 -3.0546580243e+01  1.8434037907e+02  1.8727769531e+02  5.1100000000e-04 0. 9.
      -12     1     7     0     0     0 -1.5554428734e+01 -5.7161594397e+00 -8.4591821825e-01  1.6593080172e+01  0.0000000000e+00 0. 9.
#pdf    2   -2  9.582448e-02  2.083413e-02  2.016385e+02  5.813415e-01  3.252954e-01
</event>
<event>
    12  9999  1.000000e+00  1.749326e+02  7.875670e-03  1.074823e-01
       21    -1     0     0   101   102  0.0000000000e+00  0.0000000000e+00  4.5421534499e+01  4.5421534499e+01  0.0000000000e+00 0. 9.
       21    -1     0     0   102   103  0.0000000000e+00  0.0000000000e+00 -6.8408586423e+02  6.8408586423e+02  0.0000000000e+00 0. 9.
        6     2     1     2   101     0  5.7520692054e+00 -3.1137729207e+01 -3.6678982188e+02  4.0701236246e+02  1.7355588518e+02  2.432120e-13 9.
       -6     2     1     2     0   103 -5.7520692054e+00  3.1137729207e+01 -2.7187450785e+02  3.2249503626e+02  1.7054224086e+02  3.969889e-14 9.
       24     2     3     0     0     0 -5.5286345517e+01 -3.9623844064e+01 -1.6334848299e+02  1.9438799747e+02  8.0481908819e+01  9.499911e-14 9.
        5     1     3     0   101     0  6.1038414723e+01  8.4861148573e+00 -2.0344133889e+02  2.1262436499e+02  4.8000000000e+00 0. 9.
      -24     2     4     0     0     0 -2.0694399531e+01  1.5301729708e+01 -4.3595469287e+01  9.3129800098e+01  7.8167727483e+01  1.705673e-13 9.
       -5     1     4     0     0   103  1.4942330326e+01  1.5835999499e+01 -2.2827903856e+02  2.2936523617e+02  4.8000000000e+00 0. 9.
      -15     1     5     0     0     0 -1.4415262811e+01  2.4318388048e+01 -3.2374896429e+01  4.3017145503e+01  1.7768200000e+00  1.150345e-01 9.
       16     1     5     0     0     0 -4.0871082706e+01 -6.3942232113e+01 -1.3097358656e+02  1.5137085197e+02  0.0000000000e+00 0. 9.
       11     1     7     0     0     0  1.4155247594e+01  1.1477863205e+00 -5.2574362462e+01  5.4458718644e+01  5.1100000000e-04 0. 9.
      -12     1     7     0     0     0 -3.4849647125e+01  1.4153943388e+01  8.9788931744e+00  3.8671081454e+01  0.0000000000e+00 0. 9.
#pdf   21   21  6.987928e-03  1.052440e-01  1.734569e+02  1.056947e+01  7.735833e-01
</event>
<event>
    12  9999  1.000000e+00  1.968037e+02  7.886279e-03  1.059423e-01
       21    -1     0     0   101   102  0.0000000000e+00  0.0000000000e+00  1.8136337722e+01  1.8136337722e+01  0.0000000000e+00 0. 9.
       21    -1     0     0   102   103  0.0000000000e+00  0.0000000000e+00 -2.1356761378e+03  2.1356761378e+03  0.0000000000e+00 0. 9.
        6     2     1     2   101     0 -5.3319642272e+01  8.1376617969e+01 -1.0659539629e+03  1.0839740848e+03  1.7110472618e+02  5.460745e-14 9.
       -6     2     1     2     0   103  5.3319642272e+01 -8.1376617969e+01 -1.0515858372e+03  1.0698383907e+03  1.7104464644e+02  1.047583e-13 9.
       24     2     3     0     0     0 -7.8566494083e+01  7.6216419449e+01 -5.5024371056e+02  5.6759812145e+02  8.6126940449e+01  3.152777e-13 9.
        5     1     3     0   101     0  2.5246851811e+01  5.1601985202e+00 -5.1571025236e+02  5.1637596339e+02  4.8000000000e+00 0. 9.
      -24     2     4     0     0     0  2.7672877487e+01 -6.3783918487e+01 -1.0188525823e+03  1.0244317217e+03  8.1028337520e+01  9.161029e-14 9.
       -5     1     4     0     0   103  2.5646764785e+01 -1.7592699482e+01 -3.2733254876e+01  4.5406669045e+01  4.8000000000e+00 0. 9.
       -1     1     5     0     0   104 -6.8954312211e+01  4.4616028657e+01 -2.0593250879e+02  2.2170609884e+02  3.3000000000e-01 0. 9.
        2     1     5     0   104     0 -9.6121818725e+00  3.1600390792e+01 -3.4431120177e+02  3.4589202261e+02  3.3000000000e-01 0. 9.
       11     1     7     0     0     0 -2.1143696521e+01 -2.6497596721e+01 -1.6925836095e+02  1.7261973029e+02  5.1100000000e-04 0. 9.
      -12     1     7     0     0     0  4.8816574008e+01 -3.7286321766e+01 -8.4959422134e+02  8.5181199136e+02  0.0000000000e+00 0. 9.
#pdf   21   21  2.790206e-03  3.285656e-01  1.967776e+02  1.992757e+01  7.625420e-02
</event>
<event>
    12  9999  1.000000e+00  2.466232e+02  7.906682e-03  1.031139e-01
       -2    -1     0     0     0   101  0.0000000000e+00  0.0000000000e+00  3.0937511577e+02  3.0937511577e+02  0.0000000000e+00 0. 9.
        2    -1     0     0   102     0  0.0000000000e+00  0.0000000000e+00 -2.7729072932e+02  2.7729072932e+02  0.0000000000e+00 0. 9.
       -6     2     1     2     0   101 -1.3005956919e+02 -1.1842489207e+02  1.7432160036e+02  3.0285390947e+02  1.7433451616e+02  2.991899e-13 9.
        6     2     1     2   102     0  1.3005956919e+02  1.1842489207e+02 -1.4223721391e+02  2.8381193562e+02  1.7139965920e+02  5.124059e-13 9.
      -24     2     3     0     0     0 -6.6757805281e+01 -8.1849870771e+00  1.3366466784e+02  1.6930251063e+02  7.9205417107e+01  3.809143e-14 9.
       -5     1     3     0     0   101 -6.3301763911e+01 -1.1023990500e+02  4.0656932524e+01  1.3355139883e+02  4.8000000000e+00 0. 9.
       24     2     4     0     0     0  3.2780300152e+01  1.1237375807e+02 -1.1400710033e+02  1.8222526464e+02  8.0659894399e+01  6.838193e-15 9.
        5     1     4     0   102     0  9.7279269040e+01  6.0511340020e+00 -2.8230113577e+01  1.0158667098e+02  4.8000000000e+00 0. 9.
       13     1     5     0     0     0 -1.8498991456e+01  3.2513396344e+01  7.1551054477e+01  8.0739694002e+01  1.0566000000e-01  5.847553e+05 9.
      -14     1     5     0     0     0 -4.8258813825e+01 -4.0698383422e+01  6.2113613361e+01  8.8562816631e+01  0.0000000000e+00 0. 9.
      -11     1     7     0     0     0  3.3724445069e+01  4.2074147892e+00 -2.7257291211e+01  4.3566047087e+01  5.1100000000e-04 0. 9.
       12     1     7     0     0     0 -9.4414491724e-01  1.0816634328e+02 -8.6749809123e+01  1.3865921755e+02  0.0000000000e+00 0. 9.
#pdf   -2    2  4.759617e-02  4.266011e-02  2.455968e+02  1.633597e-01  6.301953e-01
</event>
<event>
    12  9999  1.000000e+00  2.126949e+02  7.893288e-03  1.049514e-01
       21    -1     0     0   101   102  0.0000000000e+00  0.0000000000e+00  9.3498921550e+02  9.3498921550e+02  0.0000000000e+00 0. 9.
       21    -1     0     0   103   101  0.0000000000e+00  0.0000000000e+00 -8.5071677994e+01  8.5071677994e+01  0.0000000000e+00 0. 9.
        6     2     1     2   103     0 -1.2669161678e+01 -1.2607490041e+02  8.9217361728e+01  2.2999234266e+02  1.6994514373e+02  3.539667e-14 9.
       -6     2     1     2     0   102  1.2669161678e+01  1.2607490041e+02  7.6070017578e+02  7.9006855084e+02  1.7172119677e+02  1.268538e-13 9.
       24     2     3     0     0     0  3.9765799397e+00 -9.4703653286e+01  1.2906914790e+02  1.7639718690e+02  7.3976533255e+01  3.383126e-15 9.
        5     1     3     0   103     0 -1.6645741618e+01 -3.1371247126e+01 -3.9851786169e+01  5.3595155762e+01  4.8000000000e+00 0. 9.
      -24     2     4     0     0     0  4.8814017131e-01  1.5422505433e+02  5.5703710403e+02  5.8405278628e+02  8.3914934496e+01  1.204838e-13 9.
       -5     1     4     0     0   102  1.2181021507e+01 -2.8150153923e+01  2.0366307175e+02  2.0601576456e+02  4.8000000000e+00 0. 9.
       -3     1     5     0     0   104  1.1303856871e+01  5.6622690228e+00  4.0160416929e+01  4.2106383822e+01  5.0000000000e-01 0. 9.
        4     1     5     0   104     0 -7.3272769312e+00 -1.0036592231e+02  8.8908730968e+01  1.3429080308e+02  1.5000000000e+00 0. 9.
        1     1     7     0   105     0  2.5897405803e+01  1.1955653106e+02  3.0926673824e+02  3.3258151486e+02  3.3000000000e-01 0. 9.
       -2     1     7     0     0   105 -2.5409265632e+01  3.4668523279e+01  2.4777036579e+02  2.5147127142e+02  3.3000000000e-01 0. 9.
#pdf   21   21  1.438445e-01  1.308795e-02  2.119829e+02  4.737219e-01  6.571899e+00
</event>
<event>
    12  9999  1.000000e+00  1.892986e+02  7.882775e-03  1.064456e-01
       21    -1     0     0   101   102  0.0000000000e+00  0.0000000000e+00  3.6864345923e+01  3.6864345923e+01  0.0000000000e+00 0. 9.
       21    -1     0     0   102   103  0.0000000000e+00  0.0000000000e+00 -1.0446608799e+03  1.0446608799e+03  0.0000000000e+00 0. 9.
        6     2     1     2   101     0  1.1313361196e+02 -2.6349711258e+01 -4.1193760585e+02  4.6103671607e+02  1.7137310469e+02  5.363770e-14 9.
       -6     2     1     2     0   103 -1.1313361196e+02  2.6349711258e+01 -5.9585892812e+02  6.2048850975e+02  1.2831448503e+02  1.362015e-15 9.
       24     2     3     0     0     0  1.0664789762e+02 -2.5941586665e+01 -4.2466315033e+02  4.4596321154e+02  8.0608031985e+01  2.984102e-14 9.
        5     1     3     0   101     0  6.4857143467e+00 -4.0812459332e-01  1.2725544479e+01  1.5073504522e+01  4.8000000000e+00 0. 9.
      -24     2     4     0     0     0 -5.5842762889e+01  4.6705449658e+01 -4.4032261312e+02  4.5342210751e+02  8.0048677426e+01  1.472742e-13 9.
       -5     1     4     0     0   103 -5.7290849075e+01 -2.0355738400e+01 -1.5553631500e+02  1.6706640224e+02  4.8000000000e+00 0. 9.
       -1     1     5     0     0   104  2.1671109586e+01 -3.2784715280e+01 -6.1941731439e+01  7.3357764009e+01  3.3000000000e-01 0. 9.
        2     1     5     0   104     0  8.4976788031e+01  6.8431286149e+00 -3.6272141889e+02  3.7260544754e+02  3.3000000000e-01 0. 9.
        3     1     7     0   105     0 -7.5222139112e+01  3.7931525255e+01 -3.8549082044e+02  3.9458914515e+02  5.0000000000e-01 0. 9.
       -4     1     7     0     0   105  1.9379376223e+01  8.7739244031e+00 -5.4831792678e+01  5.8832962364e+01  1.5000000000e+00 0. 9.
#pdf   21   21  5.671438e-03  1.607171e-01  1.730842e+02  1.226331e+01  4.059718e-01
</event>
<event>
    12  9999  1.000000e+00  1.718347e+02  7.874063e-03  1.077198e-01
       21    -1     0     0   101   102  0.0000000000e+00  0.0000000000e+00  3.8673231120e+01  3.8673231120e+01  0.0000000000e+00 0. 9.
       21    -1     0     0   102   103  0.0000000000e+00  0.0000000000e+00 -1.2424622429e+03  1.2424622429e+03  0.0000000000e+00 0. 9.
        6     2     1     2   101     0 -5.3209136672e+00  1.4329984135e+01 -2.0529251416e+02  2.6804821859e+02  1.7167169409e+02  9.079826e-14 9.
       -6     2     1     2     0   103  5.3209136672e+00 -1.4329984135e+01 -9.9849649766e+02  1.0130872555e+03  1.7063666310e+02  1.493975e-13 9.
       24     2     3     0     0     0 -1.9729086635e+01  1.4999741527e+01 -2.7040138849e+01  8.9148824158e+01  8.1253397680e+01  8.247712e-14 9.
        5     1     3     0   101     0  1.4408172968e+01 -6.6975739178e-01 -1.7825237531e+02  1.7889939443e+02  4.8000000000e+00 0. 9.
      -24     2     4     0     0     0  5.3312254515e+01  2.2230111366e+00 -8.6440421887e+02  8.6962663481e+02  7.8795254408e+01  9.654726e-14 9.
       -5     1     4     0     0   103 -4.7991340848e+01 -1.6552995271e+01 -1.3409227879e+02  1.4346062066e+02  4.8000000000e+00 0. 9.
       -3     1     5     0     0   104  1.3205873928e+00  3.5493499371e+01 -4.2925633694e+01  5.5717075270e+01  5.0000000000e-01 0. 9.
        4     1     5     0   104     0 -2.1049674028e+01 -2.0493757844e+01  1.5885494844e+01  3.3431748888e+01  1.5000000000e+00 0. 9.
        1     1     7     0   105     0  3.5500241997e+01  3.4351616921e+01 -3.0108610592e+02  3.0511186940e+02  3.3000000000e-01 0. 9.
       -2     1     7     0     0   105  1.7812012518e+01 -3.2128605784e+01 -5.6331811295e+02  5.6451476542e+02  3.3000000000e-01 0. 9.
#pdf   21   21  5.949728e-03  1.911480e-01  1.713200e+02  1.185168e+01  2.987840e-01
</event>
<event>
    12  9999  1.000000e+00  2.027960e+02  7.888985e-03  1.055573e-01
       21    -1     0     0   101   102  0.0000000000e+00  0.0000000000e+00  2.1325885981e+02  2.1325885981e+02  0.0000000000e+00 0. 9.
       21    -1     0     0   102   103  0.0000000000e+00  0.0000000000e+00 -2.0659853619e+02  2.0659853619e+02  0.0000000000e+00 0. 9.
        6     2     1     2   101     0 -8.0305713819e+01  8.2447205887e+01 -5.0806733978e+01  2.0661531972e+02  1.6389635961e+02  1.418772e-13 9.
       -6     2     1     2     0   103  8.0305713819e+01 -8.2447205887e+01  5.7467057594e+01  2.1324207628e+02  1.7006813622e+02  5.354043e-14 9.
       24     2     3     0     0     0 -4.3285856046e-03  6.6311568490e+01 -6.6692329799e+01  1.2304461062e+02  7.9340312668e+01  9.385145e-14 9.
        5     1     3     0   101     0 -8.0301385233e+01  1.6135637397e+01  1.5885595821e+01  8.3570709098e+01  4.8000000000e+00 0. 9.
      -24     2     4     0     0     0  2.6599537389e+01  1.5167493251e+00 -1.3286388954e+01  9.0917142762e+01  8.5904381721e+01  4.092125e-15 9.
       -5     1     4     0     0   103  5.3706176429e+01 -8.3963955212e+01  7.0753446548e+01  1.2232493352e+02  4.8000000000e+00 0. 9.
      -11     1     5     0     0     0 -2.0974412419e+01  7.2008511470e+01 -6.8050545477e+01  1.0127205163e+02  5.1100000000e-04 0. 9.
       12     1     5     0     0     0  2.0970083834e+01 -5.6969429805e+00  1.3582156780e+00  2.1772558994e+01  0.0000000000e+00 0. 9.
        1     1     7     0   104     0  5.3155621839e+00  2.8348742216e+01  2.5974692149e+01  3.8816232671e+01  3.3000000000e-01 0. 9.
       -2     1     7     0     0   104  2.1283975205e+01 -2.6831992891e+01 -3.9261081103e+01  5.2100910092e+01  3.3000000000e-01 0. 9.
#pdf   21   21  3.280906e-02  3.178439e-02  2.002712e+02  2.929222e+00  3.020548e+00
</event>
<event>
    12  9999  1.000000e+00  1.948611e+02  7.885385e-03  1.060702e-01
       21    -1     0     0   101   102  0.0000000000e+00  0.0000000000e+00  3.2705265655e+02  3.2705265655e+02  0.0000000000e+00 0. 9.
       21    -1     0     0   103   101  0.0000000000e+00  0.0000000000e+00 -1.2571007200e+02  1.2571007200e+02  0.0000000000e+00 0. 9.
        6     2     1     2   103     0 -7.1663310667e+01 -5.2044388302e+01  3.6909672689e+01  1.9578453870e+02  1.7066052036e+02  3.028314e-13 9.
       -6     2     1     2     0   102  7.1663310667e+01  5.2044388302e+01  1.6443291187e+02  2.5697818984e+02  1.7650880743e+02  1.286588e-13 9.
       24     2     3     0     0     0  1.2027397817e+01 -4.9373575608e+01  5.5632109761e+01  1.0984946102e+02  7.9934749534e+01  8.423119e-14 9.
        5     1     3     0   103     0 -8.3690708484e+01 -2.6708126942e+00 -1.8722437071e+01  8.5935077686e+01  4.8000000000e+00 0. 9.
      -24     2     4     0     0     0  1.1698366099e+02  5.5739671759e+01  1.2369225170e+02  1.9573743001e+02  7.8875093861e+01  8.072018e-15 9.
       -5     1     4     0     0   102 -4.5320350324e+01 -3.6952834571e+00  4.0740660168e+01  6.1240759827e+01  4.8000000000e+00 0. 9.
       -1     1     5     0     0   104  9.8012305321e+00 -3.4974048946e+01  7.6331950997e+01  8.4533566484e+01  3.3000000000e-01 0. 9.
        2     1     5     0   104     0  2.2261672851e+00 -1.4399526662e+01 -2.0699841236e+01  2.5315894534e+01  3.3000000000e-01 0. 9.
        3     1     7     0   105     0 -5.1512748084e+00  2.5026038151e+01  1.7210675739e+01  3.0810640647e+01  5.0000000000e-01 0. 9.
       -4     1     7     0     0   105  1.2213493580e+02  3.0713633608e+01  1.0648157596e+02  1.6492678937e+02  1.5000000000e+00 0. 9.
#pdf   21   21  5.031579e-02  1.934001e-02  1.922739e+02  1.892532e+00  4.752911e+00
</event>
<event>
    12  9999  1.000000e+00  1.914500e+02  7.883793e-03  1.062988e-01
       21    -1     0     0   101   102  0.0000000000e+00  0.0000000000e+00  8.8214320818e+02  8.8214320818e+02  0.0000000000e+00 0. 9.
       21    -1     0     0   103   101  0.0000000000e+00  0.0000000000e+00 -6.0269840746e+01  6.0269840746e+01  0.0000000000e+00 0. 9.
        6     2     1     2   103     0  4.9519830137e+01  9.5471646136e+01  6.5705497982e+02  6.8162475112e+02  1.4602741536e+02  2.874643e-15 9.
       -6     2     1     2     0   102 -4.9519830137e+01 -9.5471646136e+01  1.6481838761e+02  2.6078829781e+02  1.7110928258e+02  5.644724e-13 9.
       24     2     3     0     0     0  1.1445919572e+01  4.1497375707e+01  5.3447876228e+02  5.4230205505e+02  8.1061275056e+01  8.403263e-14 9.
        5     1     3     0   103     0  3.8073910565e+01  5.3974270429e+01  1.2257621754e+02  1.3932269607e+02  4.8000000000e+00 0. 9.
      -24     2     4     0     0     0 -2.1453313518e+01  1.4183910054e+01  1.0061704401e+02  1.3056954770e+02  7.9140313853e+01  6.608102e-14 9.
       -5     1     4     0     0   102 -2.8066516619e+01 -1.0965555619e+02  6.4201343602e+01  1.3021875010e+02  4.8000000000e+00 0. 9.
      -13     1     5     0     0     0 -1.1325218690e+01  6.0361130562e+01  3.2569201070e+02  3.3143177829e+02  1.0566000000e-01  1.521093e+05 9.
       14     1     5     0     0     0  2.2771138262e+01 -1.8863754855e+01  2.0878675158e+02  2.1087027676e+02  0.0000000000e+00 0. 9.
       13     1     7     0     0     0  2.3389706611e+01 -1.6572625356e+01  3.0815421071e+01  4.2087190763e+01  1.0566000000e-01  1.430315e+05 9.
      -14     1     7     0     0     0 -4.4843020129e+01  3.0756535410e+01  6.9801622938e+01  8.8482356939e+01  0.0000000000e+00 0. 9.
#pdf   21   21  1.357143e-01  9.272283e-03  1.813589e+02  5.301508e-01  8.586977e+00
</event>
<event>
    12  9999  1.000000e+00  1.707591e+02  7.873499e-03  1.078056e-01
       21    -1     0     0   101   102  0.0000000000e+00  0.0000000000e+00  1.7575579241e+01  1.7575579241e+01  0.0000000000e+00 0. 9.
       21    -1     0     0   103   101  0.0000000000e+00  0.0000000000e+00 -1.8870965442e+03  1.8870965442e+03  0.0000000000e+00 0. 9.
        6     2     1     2   103     0 -1.4462499430e+00  9.3926462461e+00 -1.2695454392e+03  1.2810822155e+03  1.7127669792e+02  8.899593e-14 9.
       -6     2     1     2     0   102  1.4462499430e+00 -9.3926462461e+00 -5.9997552575e+02  6.2358990792e+02  1.6971572798e+02  7.037065e-14 9.
       24     2     3     0     0     0 -2.7514861585e+01  7.2769455714e-01 -1.2294101954e+03  1.2322096087e+03  7.8316627153e+01  1.573916e-13 9.
        5     1     3     0   103     0  2.6068611642e+01  8.6649516890e+00 -4.0135243812e+01  4.8872606812e+01  4.8000000000e+00 0. 9.
      -24     2     4     0     0     0  5.0097166219e+01 -1.8280889534e+01 -5.2396969034e+02  5.3278330277e+02  8.0435653352e+01  1.359828e-14 9.
       -5     1     4     0     0   102 -4.8650916276e+01  8.8882432875e+00 -7.6005835407e+01  9.0806605151e+01  4.8000000000e+00 0. 9.
      -13     1     5     0     0     0 -4.0258502580e+01  1.7406516281e+01 -3.7728036615e+02  3.7982129967e+02  1.0566000000e-01  7.468559e+05 9.
       14     1     5     0     0     0  1.2743640994e+01 -1.6678821724e+01 -8.5212982925e+02  8.5238830903e+02  0.0000000000e+00 0. 9.
        1     1     7     0   104     0  1.3183137452e+01 -3.5057137447e+00 -9.1472484118e+00  1.6427604678e+01  3.3000000000e-01 0. 9.
       -2     1     7     0     0   104  3.6914028767e+01 -1.4775175789e+01 -5.1482244193e+02  5.1635569809e+02  3.3000000000e-01 0. 9.
#pdf   21   21  2.703935e-03  2.903225e-01  1.699816e+02  2.014460e+01  1.161363e-01
</event>
<event>
    12  9999  1.000000e+00  2.261475e+02  7.898833e-03  1.041820e-01
        2    -1     0     0   101     0  0.0000000000e+00  0.0000000000e+00  2.3541416734e+03  2.3541416734e+03  0.0000000000e+00 0. 9.
       -2    -1     0     0     0   102  0.0000000000e+00  0.0000000000e+00 -2.2257592500e+01  2.2257592500e+01  0.0000000000e+00 0. 9.
        6     2     1     2   101     0 -1.4922908645e+02  3.8086924292e+00  9.9184837596e+02  1.0177270422e+03  1.7239868075e+02  1.149009e-13 9.
       -6     2     1     2     0   102  1.4922908645e+02 -3.8086924292e+00  1.3400357050e+03  1.3586722238e+03  1.6736395847e+02  5.405802e-14 9.
       24     2     3     0     0     0 -7.6391750102e+01  1.5044567065e+01  2.7461256311e+02  2.9669876696e+02  8.0969500525e+01  2.886292e-13 9.
        5     1     3     0   101     0 -7.2837336347e+01 -1.1235874636e+01  7.1723581285e+02  7.2102827523e+02  4.8000000000e+00 0. 9.
      -24     2     4     0     0     0  1.7240773511e+02  1.5833039891e+01  1.2171841423e+03  1.2320286536e+03  7.9889015563e+01  3.825131e-14 9.
       -5     1     4     0     0   102 -2.3178648657e+01 -1.9641732320e+01  1.2285156271e+02  1.2664357016e+02  4.8000000000e+00 0. 9.
      -11     1     5     0     0     0 -4.9989709847e+01 -3.1571823013e+00  2.5327484149e+02  2.5818033275e+02  5.1100000000e-04 0. 9.
       12     1     5     0     0     0 -2.6402040254e+01  1.8201749367e+01  2.1337721627e+01  3.8518434208e+01  0.0000000000e+00 0. 9.
       11     1     7     0     0     0  2.7373409070e+00  1.9499864278e+01  1.7686727131e+02  1.7796002192e+02  5.1100000000e-04 0. 9.
      -12     1     7     0     0     0  1.6967039420e+02 -3.6668243872e+00  1.0403168710e+03  1.0540686317e+03  0.0000000000e+00 0. 9.
#pdf    2   -2  3.621756e-01  3.424245e-03  2.242644e+02  2.234487e-01  9.324547e-01
</event>
<event>
    12  9999  1.000000e+00  2.073962e+02  7.891010e-03  1.052713e-01
       21    -1     0     0   101   102  0.0000000000e+00  0.0000000000e+00  8.4092841616e+02  8.4092841616e+02  0.0000000000e+00 0. 9.
       21    -1     0     0   102   103  0.0000000000e+00  0.0000000000e+00 -6.7453014327e+01  6.7453014327e+01  0.0000000000e+00 0. 9.
        6     2     1     2   101     0  9.2791619500e+01 -5.4270018000e+01  6.0232322083e+02  6.3536001202e+02  1.7127043826e+02  1.665182e-13 9.
       -6     2     1     2     0   103 -9.2791619500e+01  5.4270018000e+01  1.7115218100e+02  2.7302141847e+02  1.8355409659e+02  2.494244e-13 9.
       24     2     3     0     0     0  6.0068774743e+01 -1.0163677220e+02  4.2043612547e+02  4.4451884919e+02  8.3019157557e+01  1.672488e-13 9.
        5     1     3     0   101     0  3.2722844757e+01  4.7366754203e+01  1.8188709536e+02  1.9084116283e+02  4.8000000000e+00 0. 9.
      -24     2     4     0     0     0 -4.9730168946e+00 -2.4370397714e+01  2.9780377938e+01  8.8887096165e+01  7.9971230907e+01  7.411184e-14 9.
       -5     1     4     0     0   103 -8.7818602605e+01  7.8640415714e+01  1.4137180307e+02  1.8413432230e+02  4.8000000000e+00 0. 9.
       -3     1     5     0     0   104 -1.5852452707e+01 -1.1500344899e+01  1.2355685816e+02  1.2510038125e+02  5.0000000000e-01 0. 9.
        4     1     5     0   104     0  7.5921227450e+01 -9.0136427304e+01  2.9687926732e+02  3.1941846795e+02  1.5000000000e+00 0. 9.
        1     1     7     0   105     0  1.3316609505e+01 -5.4940440293e+00  5.2315674252e+01  5.4263756606e+01  3.3000000000e-01 0. 9.
       -2     1     7     0     0   105 -1.8289626399e+01 -1.8876353685e+01 -2.2535296314e+01  3.4623339559e+01  3.3000000000e-01 0. 9.
#pdf   21   21  1.293736e-01  1.037739e-02  2.022105e+02  5.628564e-01  7.890491e+00
</event>
<event>
    12  9999  1.000000e+00  2.337096e+02  7.901809e-03  1.037741e-01
       21    -1     0     0   101   102  0.0000000000e+00  0.0000000000e+00  1.0701063621e+02  1.0701063621e+02  0.0000000000e+00 0. 9.
       21    -1     0     0   103   101  0.0000000000e+00  0.0000000000e+00 -7.8715998406e+02  7.8715998406e+02  0.0000000000e+00 0. 9.
        6     2     1     2   103     0 -1.2057229839e+02 -1.0444048167e+02 -6.0521060267e+02  6.4878501539e+02  1.7087021172e+02  6.528415e-14 9.
       -6     2     1     2     0   102  1.2057229839e+02  1.0444048167e+02 -7.4938745179e+01  2.4538560488e+02  1.7074187009e+02  7.727017e-14 9.
       24     2     3     0     0     0 -6.6637017280e+01 -9.1485614272e+01 -2.2256411625e+02  2.6210916056e+02  7.9726510741e+01  4.541565e-13 9.
        5     1     3     0   103     0 -5.3935281110e+01 -1.2954867397e+01 -3.8264648642e+02  3.8667585483e+02  4.8000000000e+00 0. 9.
      -24     2     4     0     0     0  6.8799143460e+01  9.9280816414e+01  1.0195532607e+01  1.4549583077e+02  8.0467914338e+01  7.686898e-14 9.
       -5     1     4     0     0   102  5.1773154929e+01  5.1596652552e+00 -8.5134277786e+01  9.9889774106e+01  4.8000000000e+00 0. 9.
      -13     1     5     0     0     0 -2.7028485128e+01 -1.7568279794e+00 -1.1611421271e+01  2.9469674597e+01  1.0566000000e-01  8.736145e+05 9.
       14     1     5     0     0     0 -3.9608532151e+01 -8.9728786292e+01 -2.1095269498e+02  2.3263948596e+02  0.0000000000e+00 0. 9.
        3     1     7     0   104     0  7.1812844597e+01  4.3157536829e+01  2.4851624680e+01  8.7392853732e+01  5.0000000000e-01 0. 9.
       -4     1     7     0     0   104 -3.0137011362e+00  5.6123279585e+01 -1.4656092073e+01  5.8102977039e+01  1.5000000000e+00 0. 9.
#pdf   21   21  1.646317e-02  1.211015e-01  2.336627e+02  5.435277e+00  6.109419e-01
</event>
<event>
    12  9999  1.000000e+00  1.916910e+02  7.883906e-03  1.062825e-01
       21    -1     0     0   101   102  0.0000000000e+00  0.0000000000e+00  5.3240941112e+02  5.3240941112e+02  0.0000000000e+00 0. 9.
       21    -1     0     0   103   101  0.0000000000e+00  0.0000000000e+00 -1.2995310883e+02  1.2995310883e+02  0.0000000000e+00 0. 9.
        6     2     1     2   103     0 -6.5206877038e+01  5.7747090475e+01 -2.6189149041e+01  1.9233438705e+02  1.6946970716e+02  3.293829e-13 9.
       -6     2     1     2     0   102  6.5206877038e+01 -5.7747090475e+01  4.2864545133e+02  4.7002813290e+02  1.7205481541e+02  5.702932e-15 9.
       24     2     3     0     0     0 -2.5485985325e+01  1.9309365002e+01  4.7023503598e+01  1.0047394680e+02  8.2833671109e+01  1.566042e-13 9.
        5     1     3     0   103     0 -3.9720891713e+01  3.8437725473e+01 -7.3212652638e+01  9.1860440258e+01  4.8000000000e+00 0. 9.
      -24     2     4     0     0     0 -2.9522346789e+01 -3.7349743610e+01  2.4511798412e+02  2.6243466281e+02  8.0762329067e+01  1.464337e-13 9.
       -5     1     4     0     0   102  9.4729223828e+01 -2.0397346864e+01  1.8352746721e+02  2.0759347009e+02  4.8000000000e+00 0. 9.
       -3     1     5     0     0   104 -5.0762212488e+01 -8.0773564203e+00  2.9464743652e+01  5.9249194272e+01  5.0000000000e-01 0. 9.
        4     1     5     0   104     0  2.5276227163e+01  2.7386721422e+01  1.7558759945e+01  4.1224752524e+01  1.5000000000e+00 0. 9.
        1     1     7     0   105     0 -2.1530836783e+01  2.3778332341e+01  8.6591033343e+01  9.2342308704e+01  3.3000000000e-01 0. 9.
       -2     1     7     0     0   105 -7.9915100064e+00 -6.1128075952e+01  1.5852695078e+02  1.7009235410e+02  3.3000000000e-01 0. 9.
#pdf   21   21  8.190914e-02  1.999279e-02  1.905430e+02  1.069032e+00  4.619108e+00
</event>
<event>
    12  9999  1.000000e+00  1.661662e+02  7.871049e-03  1.082112e-01
       21    -1     0     0   101   102  0.0000000000e+00  0.0000000000e+00  7.5749483300e+01  7.5749483300e+01  0.0000000000e+00 0. 9.
       21    -1     0     0   103   101  0.0000000000e+00  0.0000000000e+00 -3.9664037087e+02  3.9664037087e+02  0.0000000000e+00 0. 9.
        6     2     1     2   103     0 -5.4163931170e+01 -2.4110600231e+01 -2.3710876782e+02  2.9806783406e+02  1.7061305180e+02  1.739407e-13 9.
       -6     2     1     2     0   102  5.4163931170e+01  2.4110600231e+01 -8.3782119751e+01  1.7432202010e+02  1.4090305398e+02  4.363527e-13 9.
       24     2     3     0     0     0 -7.3831426614e+01  1.3218169794e+01 -8.2281542123e+01  1.3752264645e+02  8.0724386309e+01  1.202228e-13 9.
        5     1     3     0   103     0  1.9667495443e+01 -3.7328770025e+01 -1.5482722569e+02  1.6054518761e+02  4.8000000000e+00 0. 9.
      -24     2     4     0     0     0  1.0336420392e+01  5.5722523907e+01 -4.2241499718e+01  1.0599320091e+02  7.8983372199e+01  5.725812e-14 9.
       -5     1     4     0     0   102  4.3827510778e+01 -3.1611923676e+01 -4.1540620033e+01  6.8328819192e+01  4.8000000000e+00 0. 9.
      -15     1     5     0     0     0 -1.7456945934e+01  3.3578108596e+01 -2.8218724983e+00  3.7991504208e+01  1.7768200000e+00  1.576138e-02 9.
       16     1     5     0     0     0 -5.6374480679e+01 -2.0359938802e+01 -7.9459669624e+01  9.9531142246e+01  0.0000000000e+00 0. 9.
       11     1     7     0     0     0  3.7549863286e+01  5.0140877507e+00 -2.6812167449e+01  4.6411481687e+01  5.1100000000e-04 0. 9.
      -12     1     7     0     0     0 -2.7213442894e+01  5.0708436156e+01 -1.5429332269e+01  5.9581719225e+01  0.0000000000e+00 0. 9.
#pdf   21   21  1.165377e-02  6.102160e-02  1.528683e+02  7.186809e+00  1.549385e+00
</event>
<event>
    12  9999  1.000000e+00  2.063568e+02  7.890556e-03  1.053352e-01
       21    -1     0     0   101   102  0.0000000000e+00  0.0000000000e+00  2.4801915036e+03  2.4801915036e+03  0.0000000000e+00 0. 9.
       21    -1     0     0   103   101  0.0000000000e+00  0.0000000000e+00 -8.6251315410e+01  8.6251315410e+01  0.0000000000e+00 0. 9.
        6     2     1     2   103     0 -8.3381787437e+00  7.0646975602e+01  2.5383965628e+01  1.8672766253e+02  1.7076988568e+02  2.350720e-14 9.
       -6     2     1     2     0   102  8.3381787437e+00 -7.0646975602e+01  2.3685562226e+03  2.3797151565e+03  2.1891808092e+02  1.516346e-13 9.
       24     2     3     0     0     0  5.8753863732e+01  6.2574830562e+01 -7.9929358307e+00  1.1120575021e+02  7.0251020876e+01  2.910914e-15 9.
        5     1     3     0   103     0 -6.7092042475e+01  8.0721450402e+00  3.3376901458e+01  7.5521912317e+01  4.8000000000e+00 0. 9.
      -24     2     4     0     0     0 -4.8222599848e+01 -6.9695411670e+01  2.1716193016e+03  2.1747585318e+03  8.0382903377e+01  7.769771e-14 9.
       -5     1     4     0     0   102  5.6560778591e+01 -9.5156393268e-01  1.9693692099e+02  2.0495662467e+02  4.8000000000e+00 0. 9.
       -3     1     5     0     0   104  5.1241615620e+01  1.2564524735e+01  1.6106558741e+01  5.5165584268e+01  5.0000000000e-01 0. 9.
        4     1     5     0   104     0  7.5122481115e+00  5.0010305827e+01 -2.4099494571e+01  5.6040165946e+01  1.5000000000e+00 0. 9.
        1     1     7     0   105     0  1.8440654910e+01  2.1924734329e+00  3.0235621157e+02  3.0292614986e+02  3.3000000000e-01 0. 9.
       -2     1     7     0     0   105 -6.6663254758e+01 -7.1887885103e+01  1.8692630900e+03  1.8718323820e+03  3.3000000000e-01 0. 9.
#pdf   21   21  3.815679e-01  1.326943e-02  1.849943e+02  4.370500e-02  6.500019e+00
</event>
<event>
    12  9999  1.000000e+00  1.845641e+02  7.880493e-03  1.067760e-01
       21    -1     0     0   101   102  0.0000000000e+00  0.0000000000e+00  2.0456660297e+02  2.0456660297e+02  0.0000000000e+00 0. 9.
       21    -1     0     0   102   103  0.0000000000e+00  0.0000000000e+00 -1.9667490582e+02  1.9667490582e+02  0.0000000000e+00 0. 9.
        6     2     1     2   101     0  6.3549203519e+01 -2.9134917823e+01 -7.4612360918e+01  1.9914457845e+02  1.7089240481e+02  7.326506e-14 9.
       -6     2     1     2     0   103 -6.3549203519e+01  2.9134917823e+01  8.2504058069e+01  2.0209693034e+02  1.7073050387e+02  5.126064e-13 9.
       24     2     3     0     0     0  7.4042409786e+01 -4.7804235176e+01 -1.1895597170e+01  1.3269848569e+02  9.8487864862e+01  7.615633e-14 9.
        5     1     3     0   101     0 -1.0493206267e+01  1.8669317354e+01 -6.2716763748e+01  6.6446092761e+01  4.8000000000e+00 0. 9.
      -24     2     4     0     0     0 -1.0333572734e+02  4.0252841771e+01  3.8956261959e+01  1.4188043545e+02  7.9460076779e+01  2.401344e-14 9.
       -5     1     4     0     0   103  3.9786523823e+01 -1.1117923948e+01  4.3547796110e+01  6.0216494890e+01  4.8000000000e+00 0. 9.
       -3     1     5     0     0   104  7.9345889688e+01 -7.2119010015e+01 -1.0213315727e+01  1.0771018352e+02  5.0000000000e-01 0. 9.
        4     1     5     0   104     0 -5.3034799023e+00  2.4314774838e+01 -1.6822814434e+00  2.4988302171e+01  1.5000000000e+00 0. 9.
       15     1     7     0     0     0 -2.6871196823e+01 -2.2386644237e+01 -1.5566444596e+00  3.5054290610e+01  1.7768200000e+00  2.878411e-01 9.
      -16     1     7     0     0     0 -7.6464530519e+01  6.2639486008e+01  4.0512906419e+01  1.0682614484e+02  0.0000000000e+00 0. 9.
#pdf   21   21  3.147179e-02  3.025768e-02  1.844892e+02  3.059135e+00  3.176035e+00
</event>
<event>
    12  9999  1.000000e+00  1.827263e+02  7.879592e-03  1.069072e-01
       21    -1     0     0   101   102  0.0000000000e+00  0.0000000000e+00  3.1213236325e+01  3.1213236325e+01  0.0000000000e+00 0. 9.
       21    -1     0     0   103   101  0.0000000000e+00  0.0000000000e+00 -1.5595774412e+03  1.5595774412e+03  0.0000000000e+00 0. 9.
        6     2     1     2   103     0 -1.4117206999e+01 -6.0500430369e+01 -1.2132442699e+03  1.2271000130e+03  1.7306988696e+02  8.566099e-14 9.
       -6     2     1     2     0   102  1.4117206999e+01  6.0500430369e+01 -3.1511993500e+02  3.6369066458e+02  1.7061866387e+02  1.391492e-14 9.
       24     2     3     0     0     0 -5.1090814365e+01 -6.8406254902e+01 -1.1266171025e+03  1.1324593460e+03  7.6866037953e+01  5.736124e-14 9.
        5     1     3     0   103     0  3.6973607366e+01  7.9058245327e+00 -8.6627167431e+01  9.4640666948e+01  4.8000000000e+00 0. 9.
      -24     2     4     0     0     0  6.1807539723e+01  6.8826694898e+01 -2.6844898558e+02  2.9627470181e+02  8.4596425326e+01  3.174555e-14 9.
       -5     1     4     0     0   102 -4.7690332724e+01 -8.3262645287e+00 -4.6670949420e+01  6.7415962769e+01  4.8000000000e+00 0. 9.
       -1     1     5     0     0   104  9.9977903915e+00 -3.0943177954e+01 -1.6490101229e+02  1.6807703243e+02  3.3000000000e-01 0. 9.
        2     1     5     0   104     0 -6.1088604756e+01 -3.7463076948e+01 -9.6171609018e+02  9.6438231359e+02  3.3000000000e-01 0. 9.
        1     1     7     0   105     0  3.0753103411e+01  7.8207569432e+01 -2.3545540638e+02  2.5000306914e+02  3.3000000000e-01 0. 9.
       -2     1     7     0     0   105  3.1054436312e+01 -9.3808745335e+00 -3.2993579196e+01  4.6271632669e+01  3.3000000000e-01 0. 9.
#pdf   21   21  4.802036e-03  2.399350e-01  1.815773e+02  1.379702e+01  1.851884e-01
</event>
<event>
    12  9999  1.000000e+00  1.994999e+02  7.887507e-03  1.057673e-01
       21    -1     0     0   101   102  0.0000000000e+00  0.0000000000e+00  1.6820963193e+02  1.6820963193e+02  0.0000000000e+00 0. 9.
       21    -1     0     0   102   103  0.0000000000e+00  0.0000000000e+00 -2.7391166746e+02  2.7391166746e+02  0.0000000000e+00 0. 9.
        6     2     1     2   101     0 -3.7485680525e+01  1.0374220236e+02  2.9511029337e+01  1.9782164702e+02  1.6153910481e+02  7.665651e-15 9.
       -6     2     1     2     0   103  3.7485680525e+01 -1.0374220236e+02 -1.3521306487e+02  2.4429965237e+02  1.7097405196e+02  4.804232e-14 9.
       24     2     3     0     0     0 -5.3335122058e+00  1.2771166671e+02  4.9669497512e+00  1.5055909322e+02  7.9401850068e+01  2.815448e-14 9.
        5     1     3     0   101     0 -3.2152168319e+01 -2.3969464358e+01  2.4544079585e+01  4.7262553802e+01  4.8000000000e+00 0. 9.
      -24     2     4     0     0     0 -4.3631689701e+01 -2.3488404892e+01 -7.7359265294e+01  1.1627308527e+02  7.1270926191e+01  1.929922e-14 9.
       -5     1     4     0     0   103  8.1117370226e+01 -8.0253797464e+01 -5.7853799573e+01  1.2802656710e+02  4.8000000000e+00 0. 9.
       -1     1     5     0     0   104  2.6710868414e+01  4.0543375864e+01 -2.2779418389e+01  5.3630650005e+01  3.3000000000e-01 0. 9.
        2     1     5     0   104     0 -3.2044380620e+01  8.7168290850e+01  2.7746368141e+01  9.6928443215e+01  3.3000000000e-01 0. 9.
        1     1     7     0   105     0 -1.2801487094e+01 -2.6296934939e+01 -8.0021210425e+01  8.5199236364e+01  3.3000000000e-01 0. 9.
       -2     1     7     0     0   105 -3.0830202607e+01  2.8085300467e+00  2.6619451311e+00  3.1073848904e+01  3.3000000000e-01 0. 9.
#pdf   21   21  2.587840e-02  4.214026e-02  1.956080e+02  3.667683e+00  2.281945e+00
</event>
<event>
    12  9999  1.000000e+00  2.046254e+02  7.889796e-03  1.054426e-01
       21    -1     0     0   101   102  0.0000000000e+00  0.0000000000e+00  4.5431261709e+02  4.5431261709e+02  0.0000000000e+00 0. 9.
       21    -1     0     0   102   103  0.0000000000e+00  0.0000000000e+00 -2.5434124218e+02  2.5434124218e+02  0.0000000000e+00 0. 9.
        6     2     1     2   101     0  1.1613278293e+02  1.9311049887e+01  3.8341560711e+02  4.3600241047e+02  1.7097027297e+02  1.474651e-13 9.
       -6     2     1     2     0   103 -1.1613278293e+02 -1.9311049887e+01 -1.8344423219e+02  2.7265144880e+02  1.6379037301e+02  5.033087e-13 9.
       24     2     3     0     0     0  1.0474380949e+00 -3.0795855534e+00  9.3032041386e+01  1.2280657334e+02  8.0099392991e+01  2.859654e-14 9.
        5     1     3     0   101     0  1.1508534484e+02  2.2390635441e+01  2.9038356572e+02  3.1319583713e+02  4.8000000000e+00 0. 9.
      -24     2     4     0     0     0 -8.6895740939e+01  4.8761632698e+01 -1.1136415707e+02  1.6917550006e+02  7.9308308032e+01  1.532403e-13 9.
       -5     1     4     0     0   103 -2.9237041994e+01 -6.8072682585e+01 -7.2080075128e+01  1.0347594875e+02  4.8000000000e+00 0. 9.
       -3     1     5     0     0   104 -3.3186475972e+01 -8.8287596472e+00  7.7457018444e+01  8.4729740296e+01  5.0000000000e-01 0. 9.
        4     1     5     0   104     0  3.4233914067e+01  5.7491740938e+00  1.5575022942e+01  3.8076833045e+01  1.5000000000e+00 0. 9.
        1     1     7     0   105     0 -2.3513215837e+01  5.3867997919e+01 -3.0241197904e+01  6.6100464972e+01  3.3000000000e-01 0. 9.
       -2     1     7     0     0   105 -6.3382525102e+01 -5.1063652208e+00 -8.1122959163e+01  1.0307503508e+02  3.3000000000e-01 0. 9.
#pdf   21   21  6.989425e-02  3.912942e-02  2.017103e+02  1.294567e+00  2.458314e+00
</event>
<event>
    12  9999  1.000000e+00  2.043122e+02  7.889657e-03  1.054621e-01
       21    -1     0     0   101   102  0.0000000000e+00  0.0000000000e+00  1.7221033702e+02  1.7221033702e+02  0.0000000000e+00 0. 9.
       21    -1     0     0   103   101  0.0000000000e+00  0.0000000000e+00 -2.4665777707e+02  2.4665777707e+02  0.0000000000e+00 0. 9.
        6     2     1     2   103     0  1.1179224459e+02 -1.1856118853e+01 -6.4706534719e+01  2.1410956586e+02  1.7034640311e+02  3.067193e-14 9.
       -6     2     1     2     0   102 -1.1179224459e+02  1.1856118853e+01 -9.7409053304e+00  2.0475854822e+02  1.7085989678e+02  1.833298e-14 9.
       24     2     3     0     0     0  5.3402968791e+01  5.4810609284e+01 -5.6075350801e+01  1.2493951761e+02  8.1297958944e+01  5.910862e-14 9.
        5     1     3     0   103     0  5.8389275802e+01 -6.6666728137e+01 -8.6311839184e+00  8.9170048251e+01  4.8000000000e+00 0. 9.
      -24     2     4     0     0     0 -6.6155870542e+01  4.9251231342e+01  4.4440381626e+01  1.2451065148e+02  8.2010193378e+01  1.195702e-13 9.
       -5     1     4     0     0   102 -4.5636374051e+01 -3.7395112489e+01 -5.4181286957e+01  8.0247896738e+01  4.8000000000e+00 0. 9.
       -3     1     5     0     0   104  6.1463988763e+01  3.4953628042e+01 -6.6189238792e+00  7.1018576311e+01  5.0000000000e-01 0. 9.
        4     1     5     0   104     0 -8.0610199728e+00  1.9856981242e+01 -4.9456426922e+01  5.3920941302e+01  1.5000000000e+00 0. 9.
       15     1     7     0     0     0 -6.9458757107e+01  4.7200590096e+00  1.5643742346e+01  7.1377038743e+01  1.7768200000e+00  8.316326e-02 9.
      -16     1     7     0     0     0  3.3028865645e+00  4.4531172333e+01  2.8796639281e+01  5.3133612740e+01  0.0000000000e+00 0. 9.
#pdf   21   21  2.649390e-02  3.794735e-02  2.040979e+02  3.584381e+00  2.534289e+00
</event>
<event>
    12  9999  1.000000e+00  2.105277e+02  7.892363e-03  1.050810e-01
        1    -1     0     0   101     0  0.0000000000e+00  0.0000000000e+00  1.8677619407e+02  1.8677619407e+02  0.0000000000e+00 0. 9.
       -1    -1     0     0     0   102  0.0000000000e+00  0.0000000000e+00 -3.2438828006e+02  3.2438828006e+02  0.0000000000e+00 0. 9.
        6     2     1     2   101     0 -1.1866581475e+02 -2.8394308512e+01 -2.0126297719e+02  2.9134192827e+02  1.7171348471e+02  3.496373e-14 9.
       -6     2     1     2     0   102  1.1866581475e+02  2.8394308512e+01  6.3650891198e+01  2.1982254587e+02  1.7141383660e+02  2.719640e-13 9.
       24     2     3     0     0     0 -1.2019813304e+00 -1.6823724060e+01 -1.2922133101e+02  1.5297766492e+02  8.0121976560e+01  3.214075e-14 9.
        5     1     3     0   101     0 -1.1746383342e+02 -1.1570584452e+01 -7.2041646184e+01  1.3836426334e+02  4.8000000000e+00 0. 9.
      -24     2     4     0     0     0  1.7274224940e+01 -2.6571903404e+01 -6.3503390070e-02  8.7973757430e+01  8.2066516107e+01  6.894848e-14 9.
       -5     1     4     0     0   102  1.0139158981e+02  5.4966211917e+01  6.3714394588e+01  1.3184878844e+02  4.8000000000e+00 0. 9.
       -3     1     5     0     0   103  3.5738585038e+00 -1.1195593643e+01 -1.3963272761e+02  1.4012730783e+02  5.0000000000e-01 0. 9.
        4     1     5     0   103     0 -4.7758398342e+00 -5.6281304167e+00  1.0411396602e+01  1.2850357089e+01  1.5000000000e+00 0. 9.
        1     1     7     0   104     0 -5.7822601848e+00  1.4240716808e+01 -2.9044531030e+01  3.2862231068e+01  3.3000000000e-01 0. 9.
       -2     1     7     0     0   104  2.3056485124e+01 -4.0812620212e+01  2.8981027640e+01  5.5111526362e+01  3.3000000000e-01 0. 9.
#pdf    1   -1  2.873480e-02  4.990589e-02  2.104056e+02  4.987269e-01  1.901050e-01
</event>
<event>
    12  9999  1.000000e+00  1.854532e+02  7.880926e-03  1.067132e-01
       21    -1     0     0   101   102  0.0000000000e+00  0.0000000000e+00  5.1770986801e+02  5.1770986801e+02  0.0000000000e+00 0. 9.
       21    -1     0     0   102   103  0.0000000000e+00  0.0000000000e+00 -6.6883856176e+01  6.6883856176e+01  0.0000000000e+00 0. 9.
        6     2     1     2   101     0  7.0668936726e+01  2.1118815556e+01  1.9935442954e+02  2.7102823289e+02  1.6814877775e+02  1.973743e-13 9.
       -6     2     1     2     0   103 -7.0668936726e+01 -2.1118815556e+01  2.5147158230e+02  3.1356549129e+02  1.7217798244e+02  2.609085e-13 9.
       24     2     3     0     0     0  7.6402435826e+01 -3.8059393013e+01  1.0412427012e+02  1.5865939093e+02  8.3935029072e+01  2.121171e-13 9.
        5     1     3     0   101     0 -5.7334991000e+00  5.9178208569e+01  9.5230159418e+01  1.1236884196e+02  4.8000000000e+00 0. 9.
      -24     2     4     0     0     0 -1.0589187208e+02 -3.5131821698e+01  1.9838630239e+02  2.4815825577e+02  9.8884080941e+01  1.583840e-14 9.
       -5     1     4     0     0   103  3.5222935351e+01  1.4013006142e+01  5.3085279902e+01  6.5407235519e+01  4.8000000000e+00 0. 9.
       -3     1     5     0     0   104  1.9834575499e+01  2.3764254566e+01  5.0267154787e+01  5.9035472647e+01  5.0000000000e-01 0. 9.
        4     1     5     0   104     0  5.6567860328e+01 -6.1823647578e+01  5.3857115332e+01  9.9623918282e+01  1.5000000000e+00 0. 9.
        3     1     7     0   105     0 -5.6227061126e+01  2.2027137292e+01  3.9545871727e+01  7.2185893018e+01  5.0000000000e-01 0. 9.
       -4     1     7     0     0   105 -4.9664810951e+01 -5.7158958990e+01  1.5884043067e+02  1.7597236276e+02  1.5000000000e+00 0. 9.
#pdf   21   21  7.964767e-02  1.028982e-02  1.836140e+02  1.111136e+00  7.933861e+00
</event>
<event>
    12  9999  1.000000e+00  2.622193e+02  7.912244e-03  1.023716e-01
       21    -1     0     0   101   102  0.0000000000e+00  0.0000000000e+00  9.6890173343e+01  9.6890173343e+01  0.0000000000e+00 0. 9.
       21    -1     0     0   103   101  0.0000000000e+00  0.0000000000e+00 -7.4958827500e+02  7.4958827500e+02  0.0000000000e+00 0. 9.
        6     2     1     2   103     0 -8.2595452886e+01  1.8082182011e+02 -4.2420257002e+02  4.9878110284e+02  1.7121982560e+02  5.009678e-14 9.
       -6     2     1     2     0   102  8.2595452886e+01 -1.8082182011e+02 -2.2849553163e+02  3.4769734550e+02  1.7077674497e+02  6.140251e-14 9.
       24     2     3     0     0     0  1.7008592125e+01  4.6112762842e+01 -1.5144599640e+02  1.7864568720e+02  8.1010571092e+01  3.917958e-14 9.
        5     1     3     0   103     0 -9.9604045012e+01  1.3470905727e+02 -2.7275657362e+02  3.2013541564e+02  4.8000000000e+00 0. 9.
      -24     2     4     0     0     0  5.5385814447e+01 -4.1855656712e+01 -1.5449155923e+02  1.8784870795e+02  8.1240450296e+01  1.741284e-15 9.
       -5     1     4     0     0   102  2.7209638439e+01 -1.3896616340e+02 -7.4003972408e+01  1.5984863755e+02  4.8000000000e+00 0. 9.
      -11     1     5     0     0     0 -5.9370917020e+00  6.4347441957e+01 -1.1460958299e+02  1.3157202916e+02  5.1100000000e-04 0. 9.
       12     1     5     0     0     0  2.2945683827e+01 -1.8234679116e+01 -3.6836413408e+01  4.7073658042e+01  0.0000000000e+00 0. 9.
        3     1     7     0   104     0  6.3219832648e+01 -2.9564694105e+01 -5.9439643636e+01  9.1674094559e+01  5.0000000000e-01 0. 9.
       -4     1     7     0     0   104 -7.8340182006e+00 -1.2290962607e+01 -9.5051915590e+01  9.6174613387e+01  1.5000000000e+00 0. 9.
#pdf   21   21  1.490618e-02  1.153213e-01  2.620749e+02  5.899525e+00  6.481631e-01
</event>
<event>
    12  9999  1.000000e+00  1.988077e+02  7.887193e-03  1.058119e-01
       21    -1     0     0   101   102  0.0000000000e+00  0.0000000000e+00  7.9777059090e+01  7.9777059090e+01  0.0000000000e+00 0. 9.
       21    -1     0     0   102   103  0.0000000000e+00  0.0000000000e+00 -6.2776170149e+02  6.2776170149e+02  0.0000000000e+00 0. 9.
        6     2     1     2   101     0 -9.7731926190e+01 -1.8885821469e+01 -1.0996675728e+02  2.2589301974e+02  1.7037243032e+02  4.463108e-14 9.
       -6     2     1     2     0   103  9.7731926190e+01  1.8885821469e+01 -4.3801788512e+02  4.8164574083e+02  1.7382390035e+02  2.511918e-13 9.
       24     2     3     0     0     0 -6.8877911999e+01 -5.5539285870e+01 -1.7019639129e+01  1.2178616425e+02  8.1935478584e+01  1.686781e-13 9.
        5     1     3     0   101     0 -2.8854014191e+01  3.6653464401e+01 -9.2947118152e+01  1.0410685549e+02  4.8000000000e+00 0. 9.
      -24     2     4     0     0     0  7.2016233017e+01 -5.1925457270e+01 -3.1896956122e+02  3.4068093142e+02  8.0245405559e+01  7.646628e-14 9.
       -5     1     4     0     0   103  2.5715693173e+01  7.0811278739e+01 -1.1904832389e+02  1.4096480942e+02  4.8000000000e+00 0. 9.
      -11     1     5     0     0     0  1.8374626953e+01 -6.6927259573e+00  3.0644246802e+00  1.9794196000e+01  5.1100000000e-04 0. 9.
       12     1     5     0     0     0 -8.7252538952e+01 -4.8846559913e+01 -2.0084063809e+01  1.0199196825e+02  0.0000000000e+00 0. 9.
        3     1     7     0   104     0  1.5687793631e+01 -3.4588259832e+01 -2.3518851681e+02  2.3823589785e+02  5.0000000000e-01 0. 9.
       -4     1     7     0     0   104  5.6328439386e+01 -1.7337197438e+01 -8.3781044415e+01  1.0244503356e+02  1.5000000000e+00 0. 9.
#pdf   21   21  1.227339e-02  9.657872e-02  1.973195e+02  6.918268e+00  8.586543e-01
</event>
<event>
    12  9999  1.000000e+00  1.944817e+02  7.885209e-03  1.060954e-01
       21    -1     0     0   101   102  0.0000000000e+00  0.0000000000e+00  3.8324942576e+02  3.8324942576e+02  0.0000000000e+00 0. 9.
       21    -1     0     0   102   103  0.0000000000e+00  0.0000000000e+00 -2.2585040994e+02  2.2585040994e+02  0.0000000000e+00 0. 9.
        6     2     1     2   101     0 -5.1890310467e+01 -7.7134466894e+01  3.0744540428e+02  3.6450197274e+02  1.7232725036e+02  2.518891e-13 9.
       -6     2     1     2     0   103  5.1890310467e+01  7.7134466894e+01 -1.5004638847e+02  2.4459786296e+02  1.6932768696e+02  7.725398e-14 9.
       24     2     3     0     0     0 -3.4539825183e+01 -1.0352569200e+01  2.7392895520e+02  2.8764331312e+02  8.0008923725e+01  2.834530e-14 9.
        5     1     3     0   101     0 -1.7350485284e+01 -6.6781897694e+01  3.3516449084e+01  7.6858659619e+01  4.8000000000e+00 0. 9.
      -24     2     4     0     0     0  1.7217642423e+01 -1.7437655184e+01 -1.0448192144e+02  1.3393964664e+02  8.0142610423e+01  1.735391e-14 9.
       -5     1     4     0     0   103  3.4672668045e+01  9.4572122078e+01 -4.5564467022e+01  1.1065821632e+02  4.8000000000e+00 0. 9.
      -11     1     5     0     0     0 -1.8414471375e+01 -4.5468474907e+01  1.4785748010e+02  1.5578289184e+02  5.1100000000e-04 0. 9.
       12     1     5     0     0     0 -1.6125353809e+01  3.5115905707e+01  1.2607147509e+02  1.3186042128e+02  0.0000000000e+00 0. 9.
       11     1     7     0     0     0  1.5605569056e+00 -1.7929289728e+00  1.3597491159e+01  1.3803684227e+01  5.1100000000e-04 0. 9.
      -12     1     7     0     0     0  1.5657085517e+01 -1.5644726211e+01 -1.1807941260e+02  1.2013596242e+02  0.0000000000e+00 0. 9.
#pdf   21   21  5.896145e-02  3.474622e-02  1.931688e+02  1.585851e+00  2.773867e+00
</event>
<event>
    12  9999  1.000000e+00  2.222716e+02  7.897269e-03  1.043977e-01
       21    -1     0     0   101   102  0.0000000000e+00  0.0000000000e+00  9.3439015431e+02  9.3439015431e+02  0.0000000000e+00 0. 9.
       21    -1     0     0   103   101  0.0000000000e+00  0.0000000000e+00 -9.9079073635e+01  9.9079073635e+01  0.0000000000e+00 0. 9.
        6     2     1     2   103     0  1.4637688616e+00  1.4380794925e+02  6.4873839393e+01  2.3163621911e+02  1.6959909810e+02  7.175291e-14 9.
       -6     2     1     2     0   102 -1.4637688616e+00 -1.4380794925e+02  7.7043724128e+02  8.0183300884e+02  1.6935100360e+02  2.211464e-13 9.
       24     2     3     0     0     0 -5.4186732272e+00  1.1823150026e+01  5.6422472679e+01  9.9115198755e+01  8.0443634334e+01  1.556123e-15 9.
        5     1     3     0   103     0  6.8824420888e+00  1.3198479923e+02  8.4513667134e+00  1.3252102035e+02  4.8000000000e+00 0. 9.
      -24     2     4     0     0     0  1.7190925257e+01 -1.2370540619e+02  7.5508452108e+02  7.7003904922e+02  8.4905523534e+01  7.358931e-14 9.
       -5     1     4     0     0   102 -1.8654694118e+01 -2.0102543062e+01  1.5352720203e+01  3.1793959613e+01  4.8000000000e+00 0. 9.
       -3     1     5     0     0   104 -3.6499026708e+01  1.1521399030e+01  5.6199106039e+01  6.7996405095e+01  5.0000000000e-01 0. 9.
        4     1     5     0   104     0  3.1080353481e+01  3.0175099601e-01  2.2336664019e-01  3.1118793660e+01  1.5000000000e+00 0. 9.
       13     1     7     0     0     0 -3.3077233883e+01 -4.0054754976e+01  3.1583881298e+02  3.2008226091e+02  1.0566000000e-01  2.525929e+05 9.
      -14     1     7     0     0     0  5.0268159139e+01 -8.3650651214e+01  4.3924570809e+02  4.4995678832e+02  0.0000000000e+00 0. 9.
#pdf   21   21  1.437523e-01  1.524293e-02  2.221770e+02  4.711878e-01  5.800320e+00
</event>
<event>
    12  9999  1.000000e+00  2.472055e+02  7.906895e-03  1.030852e-01
       21    -1     0     0   101   102  0.0000000000e+00  0.0000000000e+00  9.7999478763e+01  9.7999478763e+01  0.0000000000e+00 0. 9.
       21    -1     0     0   102   103  0.0000000000e+00  0.0000000000e+00 -6.2359794641e+02  6.2359794641e+02  0.0000000000e+00 0. 9.
        6     2     1     2   101     0  9.2983611472e+01 -1.5265521793e+02 -2.6171773314e+02  3.6041743246e+02  1.7162455016e+02  1.304802e-14 9.
       -6     2     1     2     0   103 -9.2983611472e+01  1.5265521793e+02 -2.6388073450e+02  3.6117999271e+02  1.6990696728e+02  4.020737e-13 9.
       24     2     3     0     0     0 -9.3770011249e+00 -3.3285827702e+01 -7.6955413457e+01  1.1775119849e+02  8.2142160977e+01  2.580121e-14 9.
        5     1     3     0   101     0  1.0236061260e+02 -1.1936939022e+02 -1.8476231968e+02  2.4266623397e+02  4.8000000000e+00 0. 9.
      -24     2     4     0     0     0 -5.3181456314e+01  9.5893636426e+01 -7.2551451721e+01  1.5762159043e+02  8.6930983081e+01  3.492721e-15 9.
       -5     1     4     0     0   103 -3.9802155157e+01  5.6761581499e+01 -1.9132928278e+02  2.0355840228e+02  4.8000000000e+00 0. 9.
       -3     1     5     0     0   104  4.6042759234e+00 -2.6533000254e+01  1.0505240065e+01  2.8910370597e+01  5.0000000000e-01 0. 9.
        4     1     5     0   104     0 -1.3981277048e+01 -6.7528274487e+00 -8.7460653523e+01  8.8840827895e+01  1.5000000000e+00 0. 9.
        1     1     7     0   105     0 -5.5655045363e+01  2.1058449787e+01 -5.4256275700e+01  8.0528223218e+01  3.3000000000e-01 0. 9.
       -4     1     7     0     0   105  2.4735890489e+00  7.4835186639e+01 -1.8295176021e+01  7.7093367210e+01  1.5000000000e+00 0. 9.
#pdf   21   21  1.507684e-02  9.593815e-02  2.466129e+02  5.847301e+00  8.467423e-01
</event>
<event>
    12  9999  1.000000e+00  2.127640e+02  7.893318e-03  1.049473e-01
       21    -1     0     0   101   102  0.0000000000e+00  0.0000000000e+00  1.0468671346e+02  1.0468671346e+02  0.0000000000e+00 0. 9.
       21    -1     0     0   103   101  0.0000000000e+00  0.0000000000e+00 -4.3829344039e+02  4.3829344039e+02  0.0000000000e+00 0. 9.
        6     2     1     2   103     0  5.8504658323e+01 -1.1204006743e+02 -1.3542739685e+02  2.5226822246e+02  1.7123931935e+02  6.511432e-15 9.
       -6     2     1     2     0   102 -5.8504658323e+01  1.1204006743e+02 -1.9817933007e+02  2.9071193138e+02  1.7106317086e+02  1.284240e-13 9.
       24     2     3     0     0     0  7.6588158260e+01 -1.3748220474e+02 -9.3056827691e+01  1.9942297242e+02  7.9641987313e+01  1.250709e-13 9.
        5     1     3     0   103     0 -1.8083499937e+01  2.5442137310e+01 -4.2370569161e+01  5.2845250041e+01  4.8000000000e+00 0. 9.
      -24     2     4     0     0     0 -7.7760500587e+01  2.2035470714e+01 -7.2610641335e+01  1.3494880840e+02  8.0041353259e+01  1.044512e-13 9.
       -5     1     4     0     0   102  1.9255842264e+01  9.0004596716e+01 -1.2556868874e+02  1.5576312299e+02  4.8000000000e+00 0. 9.
       -1     1     5     0     0   104 -2.0637302010e+00  9.3811688239e+00 -7.1533967050e+00  1.1981038989e+01  3.3000000000e-01 0. 9.
        2     1     5     0   104     0  7.8651888461e+01 -1.4686337356e+02 -8.5903430986e+01  1.8744193343e+02  3.3000000000e-01 0. 9.
        3     1     7     0   105     0 -4.9075973310e+01 -2.0530785693e+01 -6.3425126277e+01  8.2782612672e+01  5.0000000000e-01 0. 9.
       -4     1     7     0     0   105 -2.8684527276e+01  4.2566256407e+01 -9.1855150586e+00  5.2166195726e+01  1.5000000000e+00 0. 9.
#pdf   21   21  1.610565e-02  6.742976e-02  2.126932e+02  5.543102e+00  1.345766e+00
</event>
<event>
    12  9999  1.000000e+00  2.885395e+02  7.920936e-03  1.012350e-01
       21    -1     0     0   101   102  0.0000000000e+00  0.0000000000e+00  1.2064206127e+03  1.2064206127e+03  0.0000000000e+00 0. 9.
       21    -1     0     0   103   101  0.0000000000e+00  0.0000000000e+00 -7.4336043369e+01  7.4336043369e+01  0.0000000000e+00 0. 9.
        6     2     1     2   103     0  2.2430995865e+02 -5.8087349911e+01  3.9544086423e+02  4.8978030062e+02  1.7269096099e+02  4.613946e-14 9.
       -6     2     1     2     0   102 -2.2430995865e+02  5.8087349911e+01  7.3664370512e+02  7.9097635547e+02  1.7120323841e+02  6.900212e-14 9.
       24     2     3     0     0     0  2.0333373144e+02 -4.2481308021e+01  2.2483689359e+02  3.1711789751e+02  8.2842406580e+01  1.599194e-13 9.
        5     1     3     0   103     0  2.0976227206e+01 -1.5606041890e+01  1.7060397064e+02  1.7266240312e+02  4.8000000000e+00 0. 9.
      -24     2     4     0     0     0 -1.4559058808e+02  1.1272297893e+01  2.8073808768e+02  3.2593725989e+02  7.8086743263e+01  1.489872e-14 9.
       -5     1     4     0     0   102 -7.8719370571e+01  4.6815052019e+01  4.5590561744e+02  4.6503909558e+02  4.8000000000e+00 0. 9.
       -1     1     5     0     0   104  1.0635938764e+02  1.0295920495e+01  1.4825609400e+02  1.8275202769e+02  3.3000000000e-01 0. 9.
        2     1     5     0   104     0  9.6974343802e+01 -5.2777228516e+01  7.6580799594e+01  1.3436586982e+02  3.3000000000e-01 0. 9.
        3     1     7     0   105     0 -1.7458426435e+01  1.0534717122e+00  1.1432829539e+02  1.1565948117e+02  5.0000000000e-01 0. 9.
       -4     1     7     0     0   105 -1.2813216164e+02  1.0218826181e+01  1.6640979229e+02  2.1027777872e+02  1.5000000000e+00 0. 9.
#pdf   21   21  1.856032e-01  1.143631e-02  2.880966e+02  2.899469e-01  7.319727e+00
</event>
<event>
    12  9999  1.000000e+00  1.850965e+02  7.880753e-03  1.067384e-01
       21    -1     0     0   101   102  0.0000000000e+00  0.0000000000e+00  3.1257628298e+02  3.1257628298e+02  0.0000000000e+00 0. 9.
       21    -1     0     0   103   101  0.0000000000e+00  0.0000000000e+00 -8.7708465767e+02  8.7708465767e+02  0.0000000000e+00 0. 9.
        6     2     1     2   103     0 -5.1799941430e+01  4.5370338626e+01 -8.3854773577e+02  8.5858845969e+02  1.7108517292e+02  5.276851e-14 9.
       -6     2     1     2     0   102  5.1799941430e+01 -4.5370338626e+01  2.7403936108e+02  3.3107248096e+02  1.7253902362e+02  1.888558e-14 9.
       24     2     3     0     0     0  3.6935042033e+01  2.1768913685e+01 -3.9666869331e+02  4.0724485143e+02  8.1634758741e+01  3.578601e-13 9.
        5     1     3     0   103     0 -8.8734983463e+01  2.3601424942e+01 -4.4187904246e+02  4.5134360826e+02  4.8000000000e+00 0. 9.
      -24     2     4     0     0     0  5.6686491872e+01 -7.8633393872e+01  1.2166249343e+02  1.7495694998e+02  8.0072486204e+01  6.925637e-14 9.
       -5     1     4     0     0   102 -4.8865504414e+00  3.3263055245e+01  1.5237686765e+02  1.5611553098e+02  4.8000000000e+00 0. 9.
       -3     1     5     0     0   104  2.7392146900e+01 -6.9945282935e+00 -3.5265029993e+02  3.5378204756e+02  5.0000000000e-01 0. 9.
        4     1     5     0   104     0  9.5428951328e+00  2.8763441978e+01 -4.4018393379e+01  5.3462803870e+01  1.5000000000e+00 0. 9.
        1     1     7     0   105     0  2.5441319564e+01 -8.8649027853e+01  8.1539356875e+01  1.2310437238e+02  3.3000000000e-01 0. 9.
       -4     1     7     0     0   105  3.1245172308e+01  1.0015633981e+01  4.0123136554e+01  5.1852577598e+01  1.5000000000e+00 0. 9.
#pdf   21   21  4.808866e-02  1.349361e-01  1.844230e+02  1.992269e+00  5.337585e-01
</event>
<event>
    12  9999  1.000000e+00  1.947882e+02  7.885351e-03  1.060750e-01
       21    -1     0     0   101   102  0.0000000000e+00  0.0000000000e+00  1.4980402855e+03  1.4980402855e+03  0.0000000000e+00 0. 9.
       21    -1     0     0   103   101  0.0000000000e+00  0.0000000000e+00 -8.0538218369e+01  8.0538218369e+01  0.0000000000e+00 0. 9.
        6     2     1     2   103     0  8.6148353823e+01 -3.8335960142e+01  5.5250468850e+01  2.0247075228e+02  1.7044238474e+02  3.065484e-13 9.
       -6     2     1     2     0   102 -8.6148353823e+01  3.8335960142e+01  1.3622515983e+03  1.3761077516e+03  1.7044630312e+02  6.968127e-14 9.
       24     2     3     0     0     0  7.4745444830e+01 -8.9539059617e+01  3.4933614978e+01  1.4601193295e+02  8.0591577648e+01  1.675512e-13 9.
        5     1     3     0   103     0  1.1402908994e+01  5.1203099475e+01  2.0316853872e+01  5.6458819334e+01  4.8000000000e+00 0. 9.
      -24     2     4     0     0     0 -4.3489299872e+00 -1.9451573748e+01  4.0167932031e+02  4.1031652880e+02  8.1339415565e+01  8.424952e-14 9.
       -5     1     4     0     0   102 -8.1799423836e+01  5.7787533891e+01  9.6057227795e+02  9.6579122277e+02  4.8000000000e+00 0. 9.
       -1     1     5     0     0   104  2.2910553992e+01  1.3376412418e+01  7.1076159665e+00  2.7467234992e+01  3.3000000000e-01 0. 9.
        2     1     5     0   104     0  5.1834890838e+01 -1.0291547204e+02  2.7825999012e+01  1.1854469796e+02  3.3000000000e-01 0. 9.
       13     1     7     0     0     0 -1.0368183641e+01  2.1971018401e+01  4.4560911833e+01  5.0753432485e+01  1.0566000000e-01  9.944024e+04 9.
      -14     1     7     0     0     0  6.0192536543e+00 -4.1422592149e+01  3.5711840848e+02  3.5956309631e+02  0.0000000000e+00 0. 9.
#pdf   21   21  2.304677e-01  1.239050e-02  1.947865e+02  1.998140e-01  6.866143e+00
</event>
<event>
    12  9999  1.000000e+00  2.064708e+02  7.890606e-03  1.053282e-01
       -2    -1     0     0     0   101  0.0000000000e+00  0.0000000000e+00  2.4992246865e+02  2.4992246865e+02  0.0000000000e+00 0. 9.
        2    -1     0     0   102     0  0.0000000000e+00  0.0000000000e+00 -1.7694547033e+02  1.7694547033e+02  0.0000000000e+00 0. 9.
       -6     2     1     2     0   101  1.0739895027e+02 -3.1087748893e+01 -4.1846492642e+00  2.0541874900e+02  1.7227410863e+02  3.593651e-13 9.
        6     2     1     2   102     0 -1.0739895027e+02  3.1087748893e+01  7.7161647591e+01  2.2144918998e+02  1.7488522302e+02  5.274427e-14 9.
      -24     2     3     0     0     0 -1.2167670855e+01 -1.1153738040e+01  1.4036826348e+00  8.3978182762e+01  8.2328043635e+01  2.543447e-13 9.
       -5     1     3     0     0   101  1.1956662113e+02 -1.9934010853e+01 -5.5883318990e+00  1.2144056624e+02  4.8000000000e+00 0. 9.
       24     2     4     0     0     0 -3.7240051175e+01  2.9167274608e+00 -2.1573930013e+01  9.6999875573e+01  8.6880450588e+01  4.079832e-13 9.
        5     1     4     0   102     0 -7.0158899095e+01  2.8171021432e+01  9.8735577605e+01  1.2444931440e+02  4.8000000000e+00 0. 9.
        1     1     5     0   103     0  9.9399664429e-01  3.1821991471e+01  1.7382549808e+01  3.6275185849e+01  3.3000000000e-01 0. 9.
       -2     1     5     0     0   103 -1.3161667500e+01 -4.2975729511e+01 -1.5978867173e+01  4.7702996913e+01  3.3000000000e-01 0. 9.
       -3     1     7     0     0   104  1.8446194128e+01  1.4892012820e+01  1.6127356683e+01  2.8677094644e+01  5.0000000000e-01 0. 9.
        4     1     7     0   104     0 -5.5686245302e+01 -1.1975285359e+01 -3.7701286696e+01  6.8322780929e+01  1.5000000000e+00 0. 9.
#pdf   -2    2  3.844961e-02  2.722238e-02  2.053761e+02  1.994341e-01  6.548957e-01
</event>
<event>
    12  9999  1.000000e+00  1.865220e+02  7.881443e-03  1.066381e-01
       21    -1     0     0   101   102  0.0000000000e+00  0.0000000000e+00  2.1161279296e+02  2.1161279296e+02  0.0000000000e+00 0. 9.
       21    -1     0     0   102   103  0.0000000000e+00  0.0000000000e+00 -3.2329780524e+02  3.2329780524e+02  0.0000000000e+00 0. 9.
        6     2     1     2   101     0 -7.3109096276e+01 -4.8329662247e+00  1.3179858242e+02  2.2761165235e+02  1.7049310964e+02  5.415438e-15 9.
       -6     2     1     2     0   103  7.3109096276e+01  4.8329662247e+00 -2.4348359470e+02  3.0729894585e+02  1.7256906940e+02  4.648987e-14 9.
       24     2     3     0     0     0 -7.4951627623e+01 -2.3328133380e+01  1.5901397570e+02  1.9430724182e+02  7.9422361241e+01  9.763498e-15 9.
        5     1     3     0   101     0  1.8425313466e+00  1.8495167156e+01 -2.7215393271e+01  3.3304410531e+01  4.8000000000e+00 0. 9.
      -24     2     4     0     0     0  7.5033376027e+01  4.0786405259e+01 -8.3977944441e+01  1.4370968858e+02  7.9414363104e+01  7.271957e-14 9.
       -5     1     4     0     0   103 -1.9242797507e+00 -3.5953439034e+01 -1.5950565026e+02  1.6358925727e+02  4.8000000000e+00 0. 9.
      -13     1     5     0     0     0 -8.9280495008e+01 -2.6788465930e+01  1.1583938426e+02  1.4868558372e+02  1.0566000000e-01  5.171323e+05 9.
       14     1     5     0     0     0  1.4328867386e+01  3.4603325498e+00  4.3174591436e+01  4.5621658098e+01  0.0000000000e+00 0. 9.
       11     1     7     0     0     0  1.4986828155e+01 -2.1927481629e+01 -6.5037353553e+00  2.7344433485e+01  5.1100000000e-04 0. 9.
      -12     1     7     0     0     0  6.0046547872e+01  6.2713886888e+01 -7.7474209086e+01  1.1636525510e+02  0.0000000000e+00 0. 9.
#pdf   21   21  3.255581e-02  4.973812e-02  1.855699e+02  2.960454e+00  1.920548e+00
</event>
<event>
    12  9999  1.000000e+00  1.913500e+02  7.883746e-03  1.063055e-01
       21    -1     0     0   101   102  0.0000000000e+00  0.0000000000e+00  3.5171414978e+02  3.5171414978e+02  0.0000000000e+00 0. 9.
       21    -1     0     0   103   101  0.0000000000e+00  0.0000000000e+00 -2.5486937250e+02  2.5486937250e+02  0.0000000000e+00 0. 9.
        6     2     1     2   103     0  1.6714909686e+01 -8.6610513963e+01 -1.8473500695e+02  2.6671124981e+02  1.7095934793e+02  1.403051e-13 9.
       -6     2     1     2     0   102 -1.6714909686e+01  8.6610513963e+01  2.8157978424e+02  3.3987227248e+02  1.6865709997e+02  5.013754e-14 9.
       24     2     3     0     0     0  1.8055103777e+00  5.3939561851e+00 -1.4821630370e+02  1.6649264673e+02  7.5626543638e+01  1.376023e-14 9.
        5     1     3     0   103     0  1.4909399308e+01 -9.2004470148e+01 -3.6518703254e+01  1.0021860308e+02  4.8000000000e+00 0. 9.
      -24     2     4     0     0     0 -5.3847723131e+00 -1.9708975391e+01  1.1680893385e+02  1.4339153813e+02  8.0618649814e+01  3.765070e-14 9.
       -5     1     4     0     0   102 -1.1330137372e+01  1.0631948935e+02  1.6477085039e+02  1.9648073434e+02  4.8000000000e+00 0. 9.
       -3     1     5     0     0   104  2.2642249191e+01  3.3567344426e+01 -7.2339824690e+01  8.2901980051e+01  5.0000000000e-01 0. 9.
        4     1     5     0   104     0 -2.0836738813e+01 -2.8173388241e+01 -7.5876479007e+01  8.3590666679e+01  1.5000000000e+00 0. 9.
        1     1     7     0   105     0  8.6854432722e+00  3.7132596727e+00 -9.9483497105e+00  1.3722382599e+01  3.3000000000e-01 0. 9.
       -2     1     7     0     0   105 -1.4070215585e+01 -2.3422235064e+01  1.2675728356e+02  1.2966915553e+02  3.3000000000e-01 0. 9.
#pdf   21   21  5.410987e-02  3.921067e-02  1.903313e+02  1.748450e+00  2.460329e+00
</event>
<event>
    12  9999  1.000000e+00  3.023759e+02  7.925200e-03  1.006878e-01
       21    -1     0     0   101   102  0.0000000000e+00  0.0000000000e+00  7.1153295882e+02  7.1153295882e+02  0.0000000000e+00 0. 9.
       21    -1     0     0   103   101  0.0000000000e+00  0.0000000000e+00 -1.3036823944e+02  1.3036823944e+02  0.0000000000e+00 0. 9.
        6     2     1     2   103     0  2.4243309410e+02 -4.2772253614e+01  2.3803792542e+02  3.8297605750e+02  1.7147984104e+02  3.022897e-14 9.
       -6     2     1     2     0   102 -2.4243309410e+02  4.2772253614e+01  3.4312679396e+02  4.5892514076e+02  1.7964692399e+02  1.518879e-13 9.
       24     2     3     0     0     0  4.4583109484e+01  1.6694951969e+01  6.8020119462e+01  1.1537549828e+02  8.0114879256e+01  3.648399e-14 9.
        5     1     3     0   103     0  1.9784998461e+02 -5.9467205582e+01  1.7001780596e+02  2.6760055922e+02  4.8000000000e+00 0. 9.
      -24     2     4     0     0     0 -1.3212429271e+02 -3.9619280889e+01  1.3045745072e+02  2.0553278457e+02  7.8727777461e+01  1.670381e-14 9.
       -5     1     4     0     0   102 -1.1030880139e+02  8.2391534503e+01  2.1266934324e+02  2.5339235619e+02  4.8000000000e+00 0. 9.
       -3     1     5     0     0   104  3.7076733396e+01 -2.1810417318e+01  6.2289183860e+01  7.5700534271e+01  5.0000000000e-01 0. 9.
        4     1     5     0   104     0  7.5063760873e+00  3.8505369287e+01  5.7309356020e+00  3.9674964005e+01  1.5000000000e+00 0. 9.
        1     1     7     0   105     0 -1.3305989424e+02 -4.3967283867e+01  1.3805921334e+02  1.9671937575e+02  3.3000000000e-01 0. 9.
       -2     1     7     0     0   105  9.3560153756e-01  4.3480029780e+00 -7.6017626206e+00  8.8134088226e+00  3.3000000000e-01 0. 9.
#pdf   21   21  1.094666e-01  2.005665e-02  3.000143e+02  6.889463e-01  4.561698e+00
</event>
<event>
    12  9999  1.000000e+00  3.666372e+02  7.942789e-03  9.849783e-02
       21    -1     0     0   101   102  0.0000000000e+00  0.0000000000e+00  8.0730728215e+02  8.0730728215e+02  0.0000000000e+00 0. 9.
       21    -1     0     0   102   103  0.0000000000e+00  0.0000000000e+00 -5.2516200361e+02  5.2516200361e+02  0.0000000000e+00 0. 9.
        6     2     1     2   101     0  1.8839913749e+02  2.6454057077e+02  6.9166921734e+02  7.8290669207e+02  1.7047179730e+02  3.568977e-13 9.
       -6     2     1     2     0   103 -1.8839913749e+02 -2.6454057077e+02 -4.0952393880e+02  5.4956259369e+02  1.6980353161e+02  2.993294e-14 9.
       24     2     3     0     0     0  3.4426063753e+01  6.8637847223e+01  1.1755059259e+02  1.5703065017e+02  7.0314830148e+01  3.531987e-14 9.
        5     1     3     0   101     0  1.5397307373e+02  1.9590272355e+02  5.7411862476e+02  6.2587604190e+02  4.8000000000e+00 0. 9.
      -24     2     4     0     0     0 -3.8935627553e+01 -9.4754765798e+01 -2.1106425210e+02  2.4860437796e+02  8.2228763171e+01  2.094687e-14 9.
       -5     1     4     0     0   103 -1.4946350993e+02 -1.6978580497e+02 -1.9845968670e+02  3.0095821573e+02  4.8000000000e+00 0. 9.
       -3     1     5     0     0   104  4.2492790025e+01  5.5658238788e+01  4.5843819180e+01  8.3698163099e+01  5.0000000000e-01 0. 9.
        4     1     5     0   104     0 -8.0667262714e+00  1.2979608434e+01  7.1706773406e+01  7.3332487072e+01  1.5000000000e+00 0. 9.
        1     1     7     0   105     0 -4.2035923251e+00  1.4929968496e+01 -1.7137666698e+01  2.3116718357e+01  3.3000000000e-01 0. 9.
       -2     1     7     0     0   105 -3.4732035228e+01 -1.0968473429e+02 -1.9392658540e+02  2.2548765960e+02  3.3000000000e-01 0. 9.
#pdf   21   21  1.242011e-01  8.079415e-02  3.664822e+02  5.573893e-01  1.025300e+00
</event>
<event>
    12  9999  1.000000e+00  1.875281e+02  7.881928e-03  1.065679e-01
       21    -1     0     0   101   102  0.0000000000e+00  0.0000000000e+00  4.6592036582e+02  4.6592036582e+02  0.0000000000e+00 0. 9.
       21    -1     0     0   102   103  0.0000000000e+00  0.0000000000e+00 -3.8150994614e+02  3.8150994614e+02  0.0000000000e+00 0. 9.
        6     2     1     2   101     0 -2.2689873725e+01 -7.8803016648e+01  4.2170165759e+02  4.6154490020e+02  1.6872065993e+02  2.737407e-13 9.
       -6     2     1     2     0   103  2.2689873725e+01  7.8803016648e+01 -3.3729123791e+02  3.8588541175e+02  1.6857468976e+02  2.987327e-14 9.
       24     2     3     0     0     0  4.4740257846e+01 -7.4545698752e+01  2.6960985214e+02  2.9505194334e+02  8.2507121053e+01  4.350207e-15 9.
        5     1     3     0   101     0 -6.7430131571e+01 -4.2573178963e+00  1.5209180545e+02  1.6649295686e+02  4.8000000000e+00 0. 9.
      -24     2     4     0     0     0  1.8286362989e+01 -9.1052261872e+00 -8.6711359003e+01  1.2025302333e+02  8.0775204267e+01  5.516611e-14 9.
       -5     1     4     0     0   103  4.4035107366e+00  8.7908242835e+01 -2.5057987891e+02  2.6563238842e+02  4.8000000000e+00 0. 9.
      -15     1     5     0     0     0  6.4970755005e+00 -8.0742946955e+01  1.8777365356e+02  2.0450852680e+02  1.7768200000e+00  1.085586e-01 9.
       16     1     5     0     0     0  3.8243182346e+01  6.1972482029e+00  8.1836198578e+01  9.0543416541e+01  0.0000000000e+00 0. 9.
        1     1     7     0   104     0  4.2804933798e+01 -1.0157584568e+01 -8.4925720202e+01  9.5644789369e+01  3.3000000000e-01 0. 9.
       -2     1     7     0     0   104 -2.4518570809e+01  1.0523583809e+00 -1.7856388016e+00  2.4608233960e+01  3.3000000000e-01 0. 9.
#pdf   21   21  7.168006e-02  5.869384e-02  1.874625e+02  1.263218e+00  1.597459e+00
</event>
<event>
    12  9999  1.000000e+00  1.921185e+02  7.884107e-03  1.062536e-01
        2    -1     0     0   101     0  0.0000000000e+00  0.0000000000e+00  2.9389973582e+02  2.9389973582e+02  0.0000000000e+00 0. 9.
       -2    -1     0     0     0   102  0.0000000000e+00  0.0000000000e+00 -1.3133716623e+02  1.3133716623e+02  0.0000000000e+00 0. 9.
        6     2     1     2   101     0  1.6882806624e+01 -8.7700831937e+01  3.6388580400e+01  1.9453495669e+02  1.6894749334e+02  4.231232e-14 9.
       -6     2     1     2     0   102 -1.6882806624e+01  8.7700831937e+01  1.2617398920e+02  2.3070194536e+02  1.7125141449e+02  2.381133e-13 9.
       24     2     3     0     0     0  4.5451576818e+00 -1.2392149892e+02  4.5868324395e+01  1.5482274390e+02  8.0554220818e+01  2.400343e-14 9.
        5     1     3     0   101     0  1.2337648942e+01  3.6220666985e+01 -9.4797439953e+00  3.9712212788e+01  4.8000000000e+00 0. 9.
      -24     2     4     0     0     0 -3.2715046320e+01  3.1273759944e+00  1.1365956122e+02  1.4362163662e+02  8.1416361452e+01  2.628382e-13 9.
       -5     1     4     0     0   102  1.5832239695e+01  8.4573455943e+01  1.2514427976e+01  8.7080308747e+01  4.8000000000e+00 0. 9.
       -1     1     5     0     0   103  5.8319608955e-01 -2.1794119654e+01 -2.2912514668e+01  3.1629353417e+01  3.3000000000e-01 0. 9.
        2     1     5     0   103     0  3.9619615923e+00 -1.0212737927e+02  6.8780839063e+01  1.2319339048e+02  3.3000000000e-01 0. 9.
       11     1     7     0     0     0 -3.0000734659e+01 -2.6822449080e+00  3.4154906748e-01  3.0122336793e+01  5.1100000000e-04 0. 9.
      -12     1     7     0     0     0 -2.7143116603e+00  5.8096209024e+00  1.1331801215e+02  1.1349929982e+02  0.0000000000e+00 0. 9.
#pdf    2   -2  4.521534e-02  2.020572e-02  1.911013e+02  6.268088e-01  3.319557e-01
</event>
<event>
    12  9999  1.000000e+00  2.179826e+02  7.895507e-03  1.046420e-01
       21    -1     0     0   101   102  0.0000000000e+00  0.0000000000e+00  1.3212042980e+02  1.3212042980e+02  0.0000000000e+00 0. 9.
       21    -1     0     0   103   101  0.0000000000e+00  0.0000000000e+00 -3.8865534334e+02  3.8865534334e+02  0.0000000000e+00 0. 9.
        6     2     1     2   103     0 -5.4594060248e+01 -1.2473997891e+02 -1.9935421305e+02  2.9532280134e+02  1.7009668127e+02  3.077699e-14 9.
       -6     2     1     2     0   102  5.4594060248e+01  1.2473997891e+02 -5.7180700491e+01  2.2545297180e+02  1.7034915977e+02  8.896826e-14 9.
       24     2     3     0     0     0 -1.2562883608e+01 -5.9932483909e+01 -2.5415884602e+01  1.0494367087e+02  8.1347883762e+01  3.065281e-14 9.
        5     1     3     0   103     0 -4.2031176640e+01 -6.4807494999e+01 -1.7393832845e+02  1.9037913048e+02  4.8000000000e+00 0. 9.
      -24     2     4     0     0     0 -1.1894739252e+01  4.1280456429e+01 -7.3311170394e+01  1.1742758399e+02  8.1050286078e+01  1.376707e-13 9.
       -5     1     4     0     0   102  6.6488799500e+01  8.3459522479e+01  1.6130469903e+01  1.0802538781e+02  4.8000000000e+00 0. 9.
       -3     1     5     0     0   104 -3.4717196469e+01 -8.8717960654e+00  1.2077574521e+01  3.7816799209e+01  5.0000000000e-01 0. 9.
        4     1     5     0   104     0  2.2154312861e+01 -5.1060687844e+01 -3.7493459123e+01  6.7126871657e+01  1.5000000000e+00 0. 9.
        1     1     7     0   105     0 -2.1736422785e+01 -9.9908303641e+00 -5.8432113598e+01  6.3140395678e+01  3.3000000000e-01 0. 9.
       -2     1     7     0     0   105  9.8416835331e+00  5.1271286793e+01 -1.4879056797e+01  5.4287188317e+01  3.3000000000e-01 0. 9.
#pdf   21   21  2.032622e-02  5.979313e-02  2.178840e+02  4.540700e+00  1.546840e+00
</event>
<event>
    12  9999  1.000000e+00  1.936234e+02  7.884810e-03  1.061526e-01
       21    -1     0     0   101   102  0.0000000000e+00  0.0000000000e+00  1.6953562676e+03  1.6953562676e+03  0.0000000000e+00 0. 9.
       21    -1     0     0   102   103  0.0000000000e+00  0.0000000000e+00 -3.0444832302e+01  3.0444832302e+01  0.0000000000e+00 0. 9.
        6     2     1     2   101     0  8.9000201783e+01  1.6367437496e+01  1.2833832844e+03  1.2978843643e+03  1.7100362412e+02  6.361069e-14 9.
       -6     2     1     2     0   103 -8.9000201783e+01 -1.6367437496e+01  3.8152815087e+02  4.2791673558e+02  1.7134781515e+02  1.119499e-13 9.
       24     2     3     0     0     0  9.3069459832e+01  6.7142568211e+01  9.9011544450e+02  1.0001869698e+03  8.2917623714e+01  1.106672e-15 9.
        5     1     3     0   101     0 -4.0692580489e+00 -5.0775130715e+01  2.9326783990e+02  2.9769739448e+02  4.8000000000e+00 0. 9.
      -24     2     4     0     0     0  2.1391667403e+01 -1.9796755373e+01  9.6424049474e+01  1.2213002293e+02  6.9055269355e+01  1.028668e-13 9.
       -5     1     4     0     0   103 -1.1039186919e+02  3.4293178772e+00  2.8510410139e+02  3.0578671265e+02  4.8000000000e+00 0. 9.
      -15     1     5     0     0     0  6.5079788221e+01 -3.8308082273e+00  4.7223774470e+02  4.7671972744e+02  1.7768200000e+00  3.587195e-02 9.
       16     1     5     0     0     0  2.7989671611e+01  7.0973376438e+01  5.1787769980e+02  5.2346724237e+02  0.0000000000e+00 0. 9.
       11     1     7     0     0     0 -2.0308883930e+00  1.4905071137e+01  7.2220478984e+01  7.3770476738e+01  5.1100000000e-04 0. 9.
      -12     1     7     0     0     0  2.3422555796e+01 -3.4701826510e+01  2.4203570490e+01  4.8359546189e+01  0.0000000000e+00 0. 9.
#pdf   21   21  2.608240e-01  4.683820e-03  1.934714e+02  1.497545e-01  1.407497e+01
</event>
<event>
    12  9999  1.000000e+00  1.916004e+02  7.883864e-03  1.062886e-01
       21    -1     0     0   101   102  0.0000000000e+00  0.0000000000e+00  3.3163814526e+02  3.3163814526e+02  0.0000000000e+00 0. 9.
       21    -1     0     0   103   101  0.0000000000e+00  0.0000000000e+00 -1.2917706434e+02  1.2917706434e+02  0.0000000000e+00 0. 9.
        6     2     1     2   103     0 -2.8054945974e+01 -8.2480645153e+01  1.4222382525e+01  1.9244302780e+02  1.7100264900e+02  1.765163e-15 9.
       -6     2     1     2     0   102  2.8054945974e+01  8.2480645153e+01  1.8823869840e+02  2.6837218179e+02  1.7029293458e+02  2.565813e-15 9.
       24     2     3     0     0     0  3.9934065965e+01 -9.0853066191e+00  2.5390810084e+01  9.1660314814e+01  7.7972095356e+01  4.398913e-13 9.
        5     1     3     0   103     0 -6.7989011939e+01 -7.3395338534e+01 -1.1168427559e+01  1.0078271299e+02  4.8000000000e+00 0. 9.
      -24     2     4     0     0     0  5.7017798305e+01  1.0808522789e+02  1.7178438527e+02  2.2608476176e+02  8.1676181763e+01  1.211441e-14 9.
       -5     1     4     0     0   102 -2.8962852330e+01 -2.5604582740e+01  1.6454313131e+01  4.2287420032e+01  4.8000000000e+00 0. 9.
      -13     1     5     0     0     0  3.7121824569e+01 -4.1381971375e+01  1.4372446492e+01  5.7420168899e+01  1.0566000000e-01  1.371342e+06 9.
       14     1     5     0     0     0  2.8122413959e+00  3.2296664756e+01  1.1018363592e+01  3.4240145915e+01  0.0000000000e+00 0. 9.
       13     1     7     0     0     0  4.0118685241e+01  4.4837417875e+01  2.4605752969e+01  6.5002747560e+01  1.0566000000e-01  9.424078e+05 9.
      -14     1     7     0     0     0  1.6899113064e+01  6.3247810018e+01  1.4717863230e+02  1.6108201420e+02  0.0000000000e+00 0. 9.
#pdf   21   21  5.102125e-02  1.987339e-02  1.912847e+02  1.864654e+00  4.642852e+00
</event>
<event>
    12  9999  1.000000e+00  1.831133e+02  7.879783e-03  1.068794e-01
       21    -1     0     0   101   102  0.0000000000e+00  0.0000000000e+00  1.9854989728e+02  1.9854989728e+02  0.0000000000e+00 0. 9.
       21    -1     0     0   102   103  0.0000000000e+00  0.0000000000e+00 -2.3835197153e+02  2.3835197153e+02  0.0000000000e+00 0. 9.
        6     2     1     2   101     0  4.9496218742e+01 -4.5952612915e+01  9.7951547315e+01  2.0859376722e+02  1.7133398904e+02  2.426840e-13 9.
       -6     2     1     2     0   103 -4.9496218742e+01  4.5952612915e+01 -1.3775362157e+02  2.2830810159e+02  1.6907693721e+02  1.737766e-13 9.
       24     2     3     0     0     0  2.0961757536e+01  3.5425973020e+01  2.1241293526e+01  9.3076700251e+01  8.0732179059e+01  1.721433e-14 9.
        5     1     3     0   101     0  2.8534461206e+01 -8.1378585935e+01  7.6710253789e+01  1.1551706697e+02  4.8000000000e+00 0. 9.
      -24     2     4     0     0     0  2.4305172345e+01  1.2057699907e+00 -1.0954913225e+02  1.3738253590e+02  7.9251205111e+01  5.888769e-14 9.
       -5     1     4     0     0   103 -7.3801391088e+01  4.4746842925e+01 -2.8204489320e+01  9.0925565690e+01  4.8000000000e+00 0. 9.
       -1     1     5     0     0   104  4.8666952061e+01  5.7267078765e+00  4.7284534436e+00  4.9231438919e+01  3.3000000000e-01 0. 9.
        2     1     5     0   104     0 -2.7705194525e+01  2.9699265144e+01  1.6512840083e+01  4.3845261333e+01  3.3000000000e-01 0. 9.
        1     1     7     0   105     0  2.8082669228e+01  1.2779554747e+01 -3.9776168533e+00  3.1110828763e+01  3.3000000000e-01 0. 9.
       -2     1     7     0     0   105 -3.7774968825e+00 -1.1573784757e+01 -1.0557151539e+02  1.0627170714e+02  3.3000000000e-01 0. 9.
#pdf   21   21  3.054614e-02  3.666953e-02  1.820674e+02  3.149004e+00  2.636833e+00
</event>
<event>
    12  9999  1.000000e+00  1.832789e+02  7.879864e-03  1.068676e-01
       21    -1     0     0   101   102  0.0000000000e+00  0.0000000000e+00  4.2077107587e+01  4.2077107587e+01  0.0000000000e+00 0. 9.
       21    -1     0     0   102   103  0.0000000000e+00  0.0000000000e+00 -1.4166464648e+03  1.4166464648e+03  0.0000000000e+00 0. 9.
        6     2     1     2   101     0 -3.2820834188e+01 -5.7442162428e+01 -2.0553424892e+02  2.7541658552e+02  1.7097707134e+02  9.019858e-14 9.
       -6     2     1     2     0   103  3.2820834188e+01  5.7442162428e+01 -1.1690351083e+03  1.1833069869e+03  1.7086699960e+02  1.782935e-13 9.
       24     2     3     0     0     0  4.5250343232e+01 -2.5687986068e+01 -8.8076955866e+01  1.3076980142e+02  8.1459957148e+01  2.754272e-13 9.
        5     1     3     0   101     0 -7.8071177420e+01 -3.1754176360e+01 -1.1745729305e+02  1.4464678410e+02  4.8000000000e+00 0. 9.
      -24     2     4     0     0     0  4.9540388306e+00  6.6683581520e+01 -1.1281082478e+03  1.1327104453e+03  7.7029160287e+01  2.081029e-13 9.
       -5     1     4     0     0   103  2.7866795357e+01 -9.2414190922e+00 -4.0926860467e+01  5.0596541562e+01  4.8000000000e+00 0. 9.
       -3     1     5     0     0   104  1.6571224557e+01  2.6063262689e+01 -5.4706653707e+01  6.2824892400e+01  5.0000000000e-01 0. 9.
        4     1     5     0   104     0  2.8679118675e+01 -5.1751248756e+01 -3.3370302159e+01  6.7944909022e+01  1.5000000000e+00 0. 9.
        3     1     7     0   105     0  1.5652398993e+00  4.8862313872e+01 -2.6883143589e+02  2.7324085824e+02  5.0000000000e-01 0. 9.
       -4     1     7     0     0   105  3.3887989313e+00  1.7821267648e+01 -8.5927681194e+02  8.5946958706e+02  1.5000000000e+00 0. 9.
#pdf   21   21  6.473401e-03  2.179456e-01  1.832276e+02  1.118773e+01  2.278585e-01
</event>
<event>
    12  9999  1.000000e+00  2.498417e+02  7.907857e-03  1.029561e-01
       21    -1     0     0   101   102  0.0000000000e+00  0.0000000000e+00  3.3634625104e+02  3.3634625104e+02  0.0000000000e+00 0. 9.
       21    -1     0     0   103   101  0.0000000000e+00  0.0000000000e+00 -4.1706856575e+02  4.1706856575e+02  0.0000000000e+00 0. 9.
        6     2     1     2   103     0 -1.8259839115e-01  1.8208657504e+02 -3.2105316594e+02  4.0720755508e+02  1.7200960265e+02  8.185833e-15 9.
       -6     2     1     2     0   102  1.8259839115e-01 -1.8208657504e+02  2.4033085123e+02  3.4620726171e+02  1.7013228927e+02  4.649886e-14 9.
       24     2     3     0     0     0 -2.3557841462e+01  8.3726797248e+01 -2.6790629151e+02  2.9288923574e+02  8.0281846684e+01  3.808408e-13 9.
        5     1     3     0   103     0  2.3375243071e+01  9.8359777793e+01 -5.3146874428e+01  1.1431831934e+02  4.8000000000e+00 0. 9.
      -24     2     4     0     0     0 -3.9593429438e+01 -3.7098398016e+01  1.0502041333e+02  1.4388163685e+02  8.2028698743e+01  3.819539e-13 9.
       -5     1     4     0     0   102  3.9776027829e+01 -1.4498817703e+02  1.3531043790e+02  2.0232562485e+02  4.8000000000e+00 0. 9.
       -3     1     5     0     0   104 -4.5639270084e+01  2.1974538082e+01 -1.4465327962e+02  1.5326658018e+02  5.0000000000e-01 0. 9.
        4     1     5     0   104     0  2.2081428622e+01  6.1752259166e+01 -1.2325301190e+02  1.3962265555e+02  1.5000000000e+00 0. 9.
       11     1     7     0     0     0 -2.6312994468e+01 -3.1524780622e+01  1.1772210272e+02  1.2467830180e+02  5.1100000000e-04 0. 9.
      -12     1     7     0     0     0 -1.3280434969e+01 -5.5736173941e+00 -1.2701689388e+01  1.9203335052e+01  0.0000000000e+00 0. 9.
#pdf   21   21  5.174558e-02  6.416439e-02  2.491998e+02  1.804238e+00  1.409823e+00
</event>
<event>
    12  9999  1.000000e+00  2.109554e+02  7.892546e-03  1.050553e-01
       21    -1     0     0   101   102  0.0000000000e+00  0.0000000000e+00  9.5364730604e+01  9.5364730604e+01  0.0000000000e+00 0. 9.
       21    -1     0     0   103   101  0.0000000000e+00  0.0000000000e+00 -2.3518393701e+03  2.3518393701e+03  0.0000000000e+00 0. 9.
        6     2     1     2   103     0  1.1942248983e+02  3.8674627495e+01 -2.2249608364e+03  2.2350489308e+03  1.7098403889e+02  1.247252e-13 9.
       -6     2     1     2     0   102 -1.1942248983e+02 -3.8674627495e+01 -3.1513803111e+01  2.1215516994e+02  1.6810484365e+02  2.403315e-14 9.
       24     2     3     0     0     0  7.8884936115e+01 -4.2916924891e+01 -1.2995793120e+03  1.3051809400e+03  8.0784913263e+01  5.751716e-14 9.
        5     1     3     0   103     0  4.0537553715e+01  8.1591552386e+01 -9.2538152437e+02  9.2986799081e+02  4.8000000000e+00 0. 9.
      -24     2     4     0     0     0 -6.8431053845e+01 -9.0082719282e+01 -1.4953706745e+01  1.3772268217e+02  7.7111726697e+01  1.026626e-13 9.
       -5     1     4     0     0   102 -5.0991435985e+01  5.1408091787e+01 -1.6560096366e+01  7.4432487777e+01  4.8000000000e+00 0. 9.
       -3     1     5     0     0   104  4.0004784954e+00  2.8798435514e+00 -3.3451920815e+00  5.9780964474e+00  5.0000000000e-01 0. 9.
        2     1     5     0   104     0  7.4884457620e+01 -4.5796768443e+01 -1.2962341200e+03  1.2992028435e+03  3.3000000000e-01 0. 9.
       15     1     7     0     0     0 -2.5665689408e+01 -1.2493024084e+00  2.0532170933e+01  3.2939573492e+01  1.7768200000e+00  2.836914e-02 9.
      -16     1     7     0     0     0 -4.2765364437e+01 -8.8833416874e+01 -3.5485877678e+01  1.0478310867e+02  0.0000000000e+00 0. 9.
#pdf   21   21  1.467150e-02  3.618214e-01  2.098016e+02  5.989159e+00  5.248942e-02
</event>
<event>
    12  9999  1.000000e+00  2.599492e+02  7.911455e-03  1.024762e-01
       21    -1     0     0   101   102  0.0000000000e+00  0.0000000000e+00  1.3510432171e+03  1.3510432171e+03  0.0000000000e+00 0. 9.
       21    -1     0     0   103   101  0.0000000000e+00  0.0000000000e+00 -6.2157487797e+01  6.2157487797e+01  0.0000000000e+00 0. 9.
        6     2     1     2   103     0  1.8307783688e+02 -7.0545831701e+01  3.3248568784e+02  4.2214740523e+02  1.7078492437e+02  2.950534e-14 9.
       -6     2     1     2     0   102 -1.8307783688e+02  7.0545831701e+01  9.5640004150e+02  9.9105329971e+02  1.7026859593e+02  7.540194e-14 9.
       24     2     3     0     0     0  2.0433882085e+02 -4.0637623363e+01  2.8014227737e+02  3.5804277992e+02  7.9430262139e+01  1.586584e-13 9.
        5     1     3     0   103     0 -2.1260983975e+01 -2.9908208339e+01  5.2343410476e+01  6.4104625308e+01  4.8000000000e+00 0. 9.
      -24     2     4     0     0     0 -2.5276139779e+01  3.1835860246e+01  3.0629106279e+02  3.2093050373e+02  8.6774234876e+01  4.864119e-15 9.
       -5     1     4     0     0   102 -1.5780169710e+02  3.8709971455e+01  6.5010897871e+02  6.7012279598e+02  4.8000000000e+00 0. 9.
       -3     1     5     0     0   104  7.0805046082e+01 -1.9483356223e+01  1.6441709541e+02  1.8007272692e+02  5.0000000000e-01 0. 9.
        4     1     5     0   104     0  1.3353377477e+02 -2.1154267139e+01  1.1572518196e+02  1.7797005299e+02  1.5000000000e+00 0. 9.
        1     1     7     0   105     0 -4.1956168716e+01  1.6379038853e+01  2.8866242657e+02  2.9215526423e+02  3.3000000000e-01 0. 9.
       -2     1     7     0     0   105  1.6680028937e+01  1.5456821393e+01  1.7628636220e+01  2.8775239493e+01  3.3000000000e-01 0. 9.
#pdf   21   21  2.078528e-01  9.562690e-03  2.597799e+02  2.357820e-01  8.421529e+00
</event>
<event>
    12  9999  1.000000e+00  2.327199e+02  7.901425e-03  1.038265e-01
       21    -1     0     0   101   102  0.0000000000e+00  0.0000000000e+00  1.3807725807e+02  1.3807725807e+02  0.0000000000e+00 0. 9.
       21    -1     0     0   103   101  0.0000000000e+00  0.0000000000e+00 -3.9255033639e+02  3.9255033639e+02  0.0000000000e+00 0. 9.
        6     2     1     2   103     0  1.1222267058e+01  1.5459024639e+02 -1.3538193175e+02  2.7049469950e+02  1.7554210736e+02  5.863377e-14 9.
       -6     2     1     2     0   102 -1.1222267058e+01 -1.5459024639e+02 -1.1909114658e+02  2.6013289497e+02  1.7164596790e+02  2.150558e-13 9.
       24     2     3     0     0     0 -8.5315289661e+00  8.2970455336e+00 -1.7707921628e+01  8.1650515757e+01  7.8813756946e+01  3.653331e-14 9.
        5     1     3     0   103     0  1.9753796024e+01  1.4629320086e+02 -1.1767401012e+02  1.8884418374e+02  4.8000000000e+00 0. 9.
      -24     2     4     0     0     0 -3.6325323177e+01 -8.3213937444e+01 -3.3084413556e+00  1.2173702894e+02  8.1023885010e+01  2.589884e-13 9.
       -5     1     4     0     0   102  2.5103056119e+01 -7.1376308948e+01 -1.1578270522e+02  1.3839586603e+02  4.8000000000e+00 0. 9.
       -3     1     5     0     0   104  3.0474082586e+01  1.3802996953e+01 -2.4734747025e+01  4.1608294182e+01  5.0000000000e-01 0. 9.
        4     1     5     0   104     0 -3.9005611552e+01 -5.5059514191e+00  7.0268253969e+00  4.0042221576e+01  1.5000000000e+00 0. 9.
        3     1     7     0   105     0 -1.1746882171e+01 -9.1814661340e+01 -1.3868216826e+01  9.3597535842e+01  5.0000000000e-01 0. 9.
       -4     1     7     0     0   105 -2.4578441006e+01  8.6007238965e+00  1.0559775470e+01  2.8139493098e+01  1.5000000000e+00 0. 9.
#pdf   21   21  2.124266e-02  6.039236e-02  2.312713e+02  4.361423e+00  1.522268e+00
</event>
<event>
    12  9999  1.000000e+00  1.765277e+02  7.876486e-03  1.073620e-01
        2    -1     0     0   101     0  0.0000000000e+00  0.0000000000e+00  2.5035844844e+03  2.5035844844e+03  0.0000000000e+00 0. 9.
       -2    -1     0     0     0   102  0.0000000000e+00  0.0000000000e+00 -1.4623687448e+01  1.4623687448e+01  0.0000000000e+00 0. 9.
        6     2     1     2   101     0 -9.5995123309e+00  3.8354914221e+01  7.6592319815e+02  7.8627197115e+02  1.7326862687e+02  1.628677e-13 9.
       -6     2     1     2     0   102  9.5995123309e+00 -3.8354914221e+01  1.7230375987e+03  1.7319362007e+03  1.7082501675e+02  4.302353e-13 9.
       24     2     3     0     0     0  2.3963795662e+01  2.3550031597e+01  7.2580972019e+02  7.3170264545e+02  8.6372124792e+01  9.248288e-15 9.
        5     1     3     0   101     0 -3.3563307993e+01  1.4804882624e+01  4.0113477966e+01  5.4569325701e+01  4.8000000000e+00 0. 9.
      -24     2     4     0     0     0  2.6719255358e+01 -6.8541229651e+01  1.6281219921e+03  1.6307615416e+03  5.6481552466e+01  1.170993e-13 9.
       -5     1     4     0     0   102 -1.7119743028e+01  3.0186315430e+01  9.4915606654e+01  1.0117465902e+02  4.8000000000e+00 0. 9.
       -3     1     5     0     0   103 -2.2578300620e+01  2.7575940638e+01  1.5791095416e+02  1.6188369777e+02  5.0000000000e-01 0. 9.
        4     1     5     0   103     0  4.6542096282e+01 -4.0259090408e+00  5.6789876603e+02  5.6981894767e+02  1.5000000000e+00 0. 9.
        3     1     7     0   104     0  3.5749165984e+01 -1.5606911622e+01  7.0008290408e+02  7.0116895335e+02  5.0000000000e-01 0. 9.
       -4     1     7     0     0   104 -9.0299106260e+00 -5.2934318029e+01  9.2803908801e+02  9.2959258828e+02  1.5000000000e+00 0. 9.
#pdf    2   -2  3.851668e-01  2.249798e-03  1.753409e+02  2.034914e-01  1.112887e+00
</event>
<event>
    12  9999  1.000000e+00  2.799128e+02  7.918176e-03  1.015929e-01
        1    -1     0     0   101     0  0.0000000000e+00  0.0000000000e+00  9.9438938408e+01  9.9438938408e+01  0.0000000000e+00 0. 9.
       -1    -1     0     0     0   102  0.0000000000e+00  0.0000000000e+00 -7.9955129288e+02  7.9955129288e+02  0.0000000000e+00 0. 9.
        6     2     1     2   101     0 -1.5374189467e+02  1.5948538404e+02 -4.0455885115e+02  4.9210151431e+02  1.7153389884e+02  1.045550e-13 9.
       -6     2     1     2     0   102  1.5374189467e+02 -1.5948538404e+02 -2.9555350332e+02  4.0688871697e+02  1.7068801005e+02  4.823151e-14 9.
       24     2     3     0     0     0 -1.2677148612e+01  2.5882800711e+01 -1.2198974845e+02  1.4914779929e+02  8.0826591142e+01  2.564671e-14 9.
        5     1     3     0   101     0 -1.4106474606e+02  1.3360258333e+02 -2.8256910270e+02  3.4295371503e+02  4.8000000000e+00 0. 9.
      -24     2     4     0     0     0  1.4033022276e+02 -1.7848854565e+02 -2.1607097768e+02  3.2393388000e+02  8.1827616763e+01  1.375306e-14 9.
       -5     1     4     0     0   102  1.3411671903e+01  1.9003161618e+01 -7.9482525642e+01  8.2954836973e+01  4.8000000000e+00 0. 9.
      -15     1     5     0     0     0  1.9587948809e+01  3.1227390148e+01 -1.0697320222e+02  1.1316033191e+02  1.7768200000e+00  8.667999e-02 9.
       16     1     5     0     0     0 -3.2265097421e+01 -5.3445894367e+00 -1.5016546225e+01  3.5987467379e+01  0.0000000000e+00 0. 9.
        1     1     7     0   103     0  4.3987371155e+00 -4.8703417390e+01 -7.2402007602e+01  8.7370082743e+01  3.3000000000e-01 0. 9.
       -2     1     7     0     0   103  1.3593148565e+02 -1.2978512826e+02 -1.4366897008e+02  2.3656379726e+02  3.3000000000e-01 0. 9.
#pdf    1   -1  1.529830e-02  1.230079e-01  2.796543e+02  6.022623e-01  7.087467e-02
</event>
<event>
    12  9999  1.000000e+00  1.784673e+02  7.877469e-03  1.072176e-01
       21    -1     0     0   101   102  0.0000000000e+00  0.0000000000e+00  1.2567910321e+03  1.2567910321e+03  0.0000000000e+00 0. 9.
       21    -1     0     0   102   103  0.0000000000e+00  0.0000000000e+00 -3.1190786590e+01  3.1190786590e+01  0.0000000000e+00 0. 9.
        6     2     1     2   101     0 -2.2993950506e+01 -4.1915602954e+01  8.9158612440e+02  9.0926792886e+02  1.7192064941e+02  1.765292e-13 9.
       -6     2     1     2     0   103  2.2993950506e+01  4.1915602954e+01  3.3401412111e+02  3.7871388983e+02  1.7196842071e+02  1.779521e-13 9.
       24     2     3     0     0     0  3.4158166534e+01  3.4763256920e+00  4.7892138064e+02  4.9017125456e+02  9.8606819121e+01  1.088359e-14 9.
        5     1     3     0   101     0 -5.7152117040e+01 -4.5391928646e+01  4.1266474376e+02  4.1909667430e+02  4.8000000000e+00 0. 9.
      -24     2     4     0     0     0  1.2157440787e+01  9.2680328372e+01  1.9892168662e+02  2.3391232511e+02  8.0048059297e+01  3.624192e-14 9.
       -5     1     4     0     0   103  1.0836509719e+01 -5.0764725418e+01  1.3509243449e+02  1.4480156472e+02  4.8000000000e+00 0. 9.
       -1     1     5     0     0   104  3.4694175232e+01 -4.1384715157e+01  1.8081396215e+02  1.8870659303e+02  3.3000000000e-01 0. 9.
        2     1     5     0   104     0 -5.3600869858e-01  4.4861040849e+01  2.9810741849e+02  3.0146466153e+02  3.3000000000e-01 0. 9.
        1     1     7     0   105     0 -3.0075776082e+01  1.9725690664e+01  3.8481358634e+01  5.2674273051e+01  3.3000000000e-01 0. 9.
       -2     1     7     0     0   105  4.2233216869e+01  7.2954637708e+01  1.6044032798e+02  1.8123805206e+02  3.3000000000e-01 0. 9.
#pdf   21   21  1.933525e-01  4.798583e-03  1.784442e+02  2.904075e-01  1.379307e+01
</event>
<event>
    12  9999  1.000000e+00  2.072105e+02  7.890929e-03  1.052826e-01
       21    -1     0     0   101   102  0.0000000000e+00  0.0000000000e+00  2.3958165523e+01  2.3958165523e+01  0.0000000000e+00 0. 9.
       21    -1     0     0   102   103  0.0000000000e+00  0.0000000000e+00 -1.8235584454e+03  1.8235584454e+03  0.0000000000e+00 0. 9.
        6     2     1     2   101     0  1.0833495049e+02  4.4731440153e+01 -7.7875029771e+02  8.0585946655e+02  1.7093884993e+02  4.213954e-14 9.
       -6     2     1     2     0   103 -1.0833495049e+02 -4.4731440153e+01 -1.0208499822e+03  1.0416571444e+03  1.7081439368e+02  7.193837e-14 9.
       24     2     3     0     0     0  1.0900526392e+02  7.1412492822e+01 -4.3512834404e+02  4.6116914912e+02  7.9739680312e+01  1.857427e-13 9.
        5     1     3     0   101     0 -6.7031342923e-01 -2.6681052669e+01 -3.4362195366e+02  3.4469031743e+02  4.8000000000e+00 0. 9.
      -24     2     4     0     0     0 -9.6425429946e+01 -8.6905679596e+01 -6.2854006610e+02  6.4687794862e+02  8.0857931160e+01  1.815603e-14 9.
       -5     1     4     0     0   103 -1.1909520543e+01  4.2174239442e+01 -3.9230991605e+02  3.9477919573e+02  4.8000000000e+00 0. 9.
       -3     1     5     0     0   104  1.1305133937e+02  6.6639984624e+01 -4.3538221650e+02  4.5473004885e+02  5.0000000000e-01 0. 9.
        4     1     5     0   104     0 -4.0460754550e+00  4.7725081982e+00  2.5387245114e-01  6.4391002718e+00  1.5000000000e+00 0. 9.
       13     1     7     0     0     0 -1.3324312119e+01 -5.4389197933e+01 -1.5049706747e+02  1.6057739762e+02  1.0566000000e-01  1.425787e+05 9.
      -14     1     7     0     0     0 -8.3101117827e+01 -3.2516481662e+01 -4.7804299863e+02  4.8630055100e+02  0.0000000000e+00 0. 9.
#pdf   21   21  3.685872e-03  2.805475e-01  2.071592e+02  1.662084e+01  1.218336e-01
</event>
<event>
    12  9999  1.000000e+00  2.537841e+02  7.909277e-03  1.027661e-01
       21    -1     0     0   101   102  0.0000000000e+00  0.0000000000e+00  3.2823572530e+02  3.2823572530e+02  0.0000000000e+00 0. 9.
       21    -1     0     0   103   101  0.0000000000e+00  0.0000000000e+00 -7.1985195218e+02  7.1985195218e+02  0.0000000000e+00 0. 9.
        6     2     1     2   103     0 -5.3701929176e+01 -1.7897010045e+02 -6.4281002903e+02  6.9118479081e+02  1.7209732007e+02  3.354911e-13 9.
       -6     2     1     2     0   102  5.3701929176e+01  1.7897010045e+02  2.5119380215e+02  3.5690288667e+02  1.7136846332e+02  1.640751e-13 9.
       24     2     3     0     0     0 -2.5446402763e+01 -9.9771096278e+01 -5.5191575662e+02  5.6726681071e+02  8.1110055256e+01  5.105394e-14 9.
        5     1     3     0   103     0 -2.8255526413e+01 -7.9199004176e+01 -9.0894272412e+01  1.2391798010e+02  4.8000000000e+00 0. 9.
      -24     2     4     0     0     0  4.1346078650e+01  1.8899462991e+02  2.6333577506e+02  3.3632071625e+02  7.9607948078e+01  6.638068e-14 9.
       -5     1     4     0     0   102  1.2355850526e+01 -1.0024529458e+01 -1.2141972911e+01  2.0582170421e+01  4.8000000000e+00 0. 9.
      -13     1     5     0     0     0 -1.5505101202e+01 -1.1202124613e+02 -4.4264201216e+02  4.5686007687e+02  1.0566000000e-01  1.362294e+05 9.
       14     1     5     0     0     0 -9.9413015611e+00  1.2250149857e+01 -1.0927374446e+02  1.1040673384e+02  0.0000000000e+00 0. 9.
        1     1     7     0   104     0  2.2564267326e+01  1.0706286524e+01  6.1411081690e+01  6.6296308988e+01  3.3000000000e-01 0. 9.
       -2     1     7     0     0   104  1.8781811324e+01  1.7828834339e+02  2.0192469337e+02  2.7002440726e+02  3.3000000000e-01 0. 9.
#pdf   21   21  5.049780e-02  1.107465e-01  2.535377e+02  1.851513e+00  6.901866e-01
</event>
<event>
    12  9999  1.000000e+00  2.110149e+02  7.892572e-03  1.050517e-01
       21    -1     0     0   101   102  0.0000000000e+00  0.0000000000e+00  1.0496056587e+02  1.0496056587e+02  0.0000000000e+00 0. 9.
       21    -1     0     0   103   101  0.0000000000e+00  0.0000000000e+00 -9.0361375099e+02  9.0361375099e+02  0.0000000000e+00 0. 9.
        6     2     1     2   103     0 -1.2142479917e+02  2.4958626964e+01 -7.6688371473e+02  7.9546042019e+02  1.7111321766e+02  1.024361e-13 9.
       -6     2     1     2     0   102  1.2142479917e+02 -2.4958626964e+01 -3.1769470391e+01  2.1311389667e+02  1.7041513663e+02  3.187698e-13 9.
       24     2     3     0     0     0 -1.1354231053e+01  4.9807917068e+01 -4.2530201467e+02  4.3569088979e+02  7.9592717028e+01  1.648069e-14 9.
        5     1     3     0   103     0 -1.1007056812e+02 -2.4849290104e+01 -3.4158170006e+02  3.5976953040e+02  4.8000000000e+00 0. 9.
      -24     2     4     0     0     0  6.5181661233e-01  2.9638102504e+00 -3.6410246069e+01  8.8975455343e+01  8.1127779451e+01  5.343542e-15 9.
       -5     1     4     0     0   102  1.2077298256e+02 -2.7922437215e+01  4.6407756780e+00  1.2413844133e+02  4.8000000000e+00 0. 9.
       -3     1     5     0     0   104 -3.4658910864e+00  4.2909127433e+01 -8.5530422380e+01  9.5754419066e+01  5.0000000000e-01 0. 9.
        4     1     5     0   104     0 -7.8883399671e+00  6.8987896355e+00 -3.3977159229e+02  3.3993647073e+02  1.5000000000e+00 0. 9.
        1     1     7     0   105     0  2.4683601059e+01  2.1729108566e+01  9.1654209715e+00  3.4140125394e+01  3.3000000000e-01 0. 9.
       -2     1     7     0     0   105 -2.4031784446e+01 -1.8765298316e+01 -4.5575667040e+01  5.4835329950e+01  3.3000000000e-01 0. 9.
#pdf   21   21  1.614778e-02  1.390175e-01  2.107326e+02  5.531605e+00  5.006546e-01
</event>
<event>
    12  9999  1.000000e+00  2.007513e+02  7.888071e-03  1.056870e-01
        1    -1     0     0   101     0  0.0000000000e+00  0.0000000000e+00  1.1642276858e+03  1.1642276858e+03  0.0000000000e+00 0. 9.
       -1    -1     0     0     0   102  0.0000000000e+00  0.0000000000e+00 -6.9034317388e+01  6.9034317388e+01  0.0000000000e+00 0. 9.
        6     2     1     2   101     0  9.7297754750e+01 -3.3510205263e+01  1.1630592054e+02  2.3458575709e+02  1.7582270428e+02  4.143666e-13 9.
       -6     2     1     2     0   102 -9.7297754750e+01  3.3510205263e+01  9.7888744786e+02  9.9867624608e+02  1.6894916979e+02  2.576891e-13 9.
       24     2     3     0     0     0  4.6976785541e+01 -5.9886449768e+01  4.0611868526e+00  1.0868966320e+02  7.7483833171e+01  1.297054e-13 9.
        5     1     3     0   101     0  5.0320969209e+01  2.6376244505e+01  1.1224473368e+02  1.2589609389e+02  4.8000000000e+00 0. 9.
      -24     2     4     0     0     0 -6.3218214818e+00  5.8551191359e+01  4.3663920454e+02  4.4825834231e+02  8.2544164328e+01  1.035589e-13 9.
       -5     1     4     0     0   102 -9.0975933268e+01 -2.5040986096e+01  5.4224824332e+02  5.5041790378e+02  4.8000000000e+00 0. 9.
       -1     1     5     0     0   103  1.7213011923e+01 -1.6128076300e+01  3.8782583738e+01  4.5393835771e+01  3.3000000000e-01 0. 9.
        2     1     5     0   103     0  2.9763773618e+01 -4.3758373468e+01 -3.4721396886e+01  6.3295827432e+01  3.3000000000e-01 0. 9.
       15     1     7     0     0     0 -3.1866120444e+01  2.0205576479e+01  7.7931381737e+01  8.6603535157e+01  1.7768200000e+00  3.341600e-02 9.
      -16     1     7     0     0     0  2.5544298962e+01  3.8345614880e+01  3.5870782281e+02  3.6165480715e+02  0.0000000000e+00 0. 9.
#pdf    1   -1  1.791120e-01  1.062066e-02  1.978222e+02  2.448204e-01  5.279241e-01
</event>
<event>
    12  9999  1.000000e+00  1.731841e+02  7.874766e-03  1.076157e-01
        3    -1     0     0   101     0  0.0000000000e+00  0.0000000000e+00  4.4389777830e+02  4.4389777830e+02  0.0000000000e+00 0. 9.
       -3    -1     0     0     0   102  0.0000000000e+00  0.0000000000e+00 -6.7651520249e+01  6.7651520249e+01  0.0000000000e+00 0. 9.
        6     2     1     2   101     0 -2.4038412543e+01  1.3312241071e+01  1.9743582680e+02  2.6278947954e+02  1.7123768223e+02  4.193830e-14 9.
       -6     2     1     2     0   102  2.4038412543e+01 -1.3312241071e+01  1.7881043125e+02  2.4875981901e+02  1.7074312925e+02  5.321900e-13 9.
       24     2     3     0     0     0 -3.9866036007e+01  6.3721464531e+01  1.7226360477e+02  2.0406738629e+02  7.9492281065e+01  4.760055e-14 9.
        5     1     3     0   101     0  1.5827623464e+01 -5.0409223460e+01  2.5172222029e+01  5.8722093255e+01  4.8000000000e+00 0. 9.
      -24     2     4     0     0     0 -3.5318063980e+01  2.9486520215e+01  5.9535860532e+01  1.0874414669e+02  7.8510828763e+01  5.793218e-14 9.
       -5     1     4     0     0   102  5.9356476523e+01 -4.2798761286e+01  1.1927457072e+02  1.4001567231e+02  4.8000000000e+00 0. 9.
       -1     1     5     0     0   103  1.9315694500e+01  2.3058564317e+01  2.1184990649e+01  3.6792746176e+01  3.3000000000e-01 0. 9.
        2     1     5     0   103     0 -5.9181730507e+01  4.0662900214e+01  1.5107861412e+02  1.6727464011e+02  3.3000000000e-01 0. 9.
       11     1     7     0     0     0 -3.7089799876e+00 -2.4171576909e+01  3.0081376057e+00  2.4638801816e+01  5.1100000000e-04 0. 9.
      -12     1     7     0     0     0 -3.1609083992e+01  5.3658097124e+01  5.6527722926e+01  8.4105344878e+01  0.0000000000e+00 0. 9.
#pdf    3   -3  6.829197e-02  1.040793e-02  1.729401e+02  7.062743e-02  3.500461e-01
</event>
<event>
    12  9999  1.000000e+00  1.877131e+02  7.882017e-03  1.065551e-01
       21    -1     0     0   101   102  0.0000000000e+00  0.0000000000e+00  3.0909741879e+02  3.0909741879e+02  0.0000000000e+00 0. 9.
       21    -1     0     0   102   103  0.0000000000e+00  0.0000000000e+00 -3.0487532898e+02  3.0487532898e+02  0.0000000000e+00 0. 9.
        6     2     1     2   101     0  7.1544791828e+01  1.3324318979e+01  2.4500555360e+02  3.0790050465e+02  1.7169392754e+02  9.881325e-14 9.
       -6     2     1     2     0   103 -7.1544791828e+01 -1.3324318979e+01 -2.4078346379e+02  3.0607224312e+02  1.7437702503e+02  4.621256e-14 9.
       24     2     3     0     0     0  2.4587764597e+01  7.2045451177e+01  1.4077330035e+02  1.7929048797e+02  8.0826058804e+01  1.892770e-13 9.
        5     1     3     0   101     0  4.6957027232e+01 -5.8721132198e+01  1.0423225325e+02  1.2861001668e+02  4.8000000000e+00 0. 9.
      -24     2     4     0     0     0  2.7740629477e+01 -1.5538524190e+01 -7.3298368848e+01  1.1129854208e+02  7.7483716583e+01  3.328527e-14 9.
       -5     1     4     0     0   103 -9.9285421305e+01  2.2142052109e+00 -1.6748509494e+02  1.9477370104e+02  4.8000000000e+00 0. 9.
       -1     1     5     0     0   104  3.5441183891e+00  7.3964097504e+01  1.3972112892e+02  1.5813080428e+02  3.3000000000e-01 0. 9.
        2     1     5     0   104     0  2.1043646208e+01 -1.9186463267e+00  1.0521714363e+00  2.1159683697e+01  3.3000000000e-01 0. 9.
        1     1     7     0   105     0 -2.0661687857e+01 -1.2737766894e+01 -1.0600719332e+00  2.4297915611e+01  3.3000000000e-01 0. 9.
       -2     1     7     0     0   105  4.8402317334e+01 -2.8007572955e+00 -7.2238296915e+01  8.7000626469e+01  3.3000000000e-01 0. 9.
#pdf   21   21  4.755345e-02  4.690390e-02  1.864806e+02  2.014957e+00  2.044719e+00
</event>
<event>
    12  9999  1.000000e+00  3.782077e+02  7.945632e-03  9.815374e-02
       21    -1     0     0   101   102  0.0000000000e+00  0.0000000000e+00  1.5271196704e+02  1.5271196704e+02  0.0000000000e+00 0. 9.
       21    -1     0     0   102   103  0.0000000000e+00  0.0000000000e+00 -1.0120421134e+03  1.0120421134e+03  0.0000000000e+00 0. 9.
        6     2     1     2   101     0 -3.3178529930e+02 -6.1452770610e+01 -2.7064994323e+02  4.6500621890e+02  1.7065012160e+02  1.018396e-13 9.
       -6     2     1     2     0   103  3.3178529930e+02  6.1452770610e+01 -5.8868020316e+02  6.9974786156e+02  1.7101099474e+02  3.617873e-15 9.
       24     2     3     0     0     0 -1.9590275128e+02 -1.6928687872e+01 -1.1955218936e+02  2.5691962149e+02  1.1423877403e+02  1.636198e-13 9.
        5     1     3     0   101     0 -1.3588254802e+02 -4.4524082738e+01 -1.5109775386e+02  2.0808659741e+02  4.8000000000e+00 0. 9.
      -24     2     4     0     0     0  1.7372307735e+02  8.7474828334e+01 -2.6030218038e+02  3.3434947714e+02  7.8745124006e+01  1.302378e-13 9.
       -5     1     4     0     0   103  1.5806222194e+02 -2.6022057724e+01 -3.2837802278e+02  3.6539838442e+02  4.8000000000e+00 0. 9.
       -3     1     5     0     0   104 -2.5671501621e+01  8.3549361587e-01  2.2764553771e+01  3.4324902818e+01  5.0000000000e-01 0. 9.
        2     1     5     0   104     0 -1.7023124966e+02 -1.7764181488e+01 -1.4231674313e+02  2.2259471867e+02  3.3000000000e-01 0. 9.
        3     1     7     0   105     0  1.5888512566e+02  5.7291379415e+01 -2.4448275695e+02  2.9715123045e+02  5.0000000000e-01 0. 9.
       -4     1     7     0     0   105  1.4837951688e+01  3.0183448919e+01 -1.5819423433e+01  3.7198246689e+01  1.5000000000e+00 0. 9.
#pdf   21   21  2.349415e-02  1.556988e-01  3.781262e+02  3.927898e+00  3.834153e-01
</event>
<event>
    12  9999  1.000000e+00  1.747275e+02  7.875564e-03  1.074978e-01
       -1    -1     0     0     0   101  0.0000000000e+00  0.0000000000e+00  1.1472184629e+02  1.1472184629e+02  0.0000000000e+00 0. 9.
        1    -1     0     0   102     0  0.0000000000e+00  0.0000000000e+00 -7.3412684603e+02  7.3412684603e+02  0.0000000000e+00 0. 9.
       -6     2     1     2     0   101  5.7028993964e+00  3.5732570282e+01  2.9495014692e+01  1.7670522374e+02  1.7042722953e+02  2.481981e-13 9.
        6     2     1     2   102     0 -5.7028993964e+00 -3.5732570282e+01 -6.4890001444e+02  6.7214346858e+02  1.7145341637e+02  1.750404e-13 9.
      -24     2     3     0     0     0  9.9035742109e+00 -4.6303486878e+01  3.8283115031e+00  9.0511372477e+01  7.7042578484e+01  7.084191e-16 9.
       -5     1     3     0     0   101 -4.2006748146e+00  8.2036057160e+01  2.5666703189e+01  8.6193851265e+01  4.8000000000e+00 0. 9.
       24     2     4     0     0     0  2.6257910352e+01  1.8957075806e+01 -5.3270671458e+02  5.3971849481e+02  8.0441042364e+01  3.498525e-13 9.
        5     1     4     0   102     0 -3.1960809748e+01 -5.4689646089e+01 -1.1619329985e+02  1.3242497378e+02  4.8000000000e+00 0. 9.
        1     1     5     0   103     0  7.3938262049e+00  1.6464272252e+01 -1.6529743482e+01  2.4476156690e+01  3.3000000000e-01 0. 9.
       -2     1     5     0     0   103  2.5097480060e+00 -6.2767759130e+01  2.0358054985e+01  6.6035215787e+01  3.3000000000e-01 0. 9.
       -1     1     7     0     0   104  2.8280826863e+01  4.5511265666e+01 -2.4550270672e+02  2.5128224843e+02  3.3000000000e-01 0. 9.
        2     1     7     0   104     0 -2.0229165109e+00 -2.6554189860e+01 -2.8720400786e+02  2.8843624637e+02  3.3000000000e-01 0. 9.
#pdf   -1    1  1.764951e-02  1.129426e-01  1.742262e+02  3.931354e-01  3.322654e-01
</event>
<event>
    12  9999  1.000000e+00  1.792157e+02  7.877846e-03  1.071624e-01
       21    -1     0     0   101   102  0.0000000000e+00  0.0000000000e+00  4.2075113161e+01  4.2075113161e+01  0.0000000000e+00 0. 9.
       21    -1     0     0   102   103  0.0000000000e+00  0.0000000000e+00 -2.5317751957e+03  2.5317751957e+03  0.0000000000e+00 0. 9.
        6     2     1     2   101     0 -2.2827140597e+01  4.7399626206e+01 -1.6986371758e+02  2.4712263607e+02  1.7160452148e+02  2.531001e-13 9.
       -6     2     1     2     0   103  2.2827140597e+01 -4.7399626206e+01 -2.3198363650e+03  2.3267276728e+03  1.7103537722e+02  3.682546e-13 9.
       24     2     3     0     0     0  2.5357305036e+01  5.5652955330e+01 -1.7089276898e+02  1.9799059775e+02  7.9092945033e+01  3.420524e-14 9.
        5     1     3     0   101     0 -4.8184445633e+01 -8.2533291236e+00  1.0290513911e+00  4.9132038319e+01  4.8000000000e+00 0. 9.
      -24     2     4     0     0     0  7.1294421058e+01 -5.4948941707e+01 -1.9186228860e+03  1.9224983256e+03  8.2363539074e+01  2.680770e-13 9.
       -5     1     4     0     0   103 -4.8467280462e+01  7.5493155004e+00 -4.0121347899e+02  4.0422934723e+02  4.8000000000e+00 0. 9.
      -11     1     5     0     0     0 -2.8659436737e+00  5.5098011644e+01 -1.5723027324e+02  1.6662941920e+02  5.1100000000e-04 0. 9.
       12     1     5     0     0     0  2.8223248710e+01  5.5494368557e-01 -1.3662495736e+01  3.1361178549e+01  0.0000000000e+00 0. 9.
        1     1     7     0   104     0  4.9518614215e+01 -2.0747159067e+01 -4.3214036741e+02  4.3546290750e+02  3.3000000000e-01 0. 9.
       -2     1     7     0     0   104  2.1775806844e+01 -3.4201782640e+01 -1.4864825186e+03  1.4870354181e+03  3.3000000000e-01 0. 9.
#pdf   21   21  6.473094e-03  3.895039e-01  1.789439e+02  1.117938e+01  4.032312e-02
</event>
<event>
    12  9999  1.000000e+00  2.310353e+02  7.900768e-03  1.039164e-01
       -2    -1     0     0     0   101  0.0000000000e+00  0.0000000000e+00  2.5025802994e+01  2.5025802994e+01  0.0000000000e+00 0. 9.
        2    -1     0     0   102     0  0.0000000000e+00  0.0000000000e+00 -2.3421295597e+03  2.3421295597e+03  0.0000000000e+00 0. 9.
       -6     2     1     2     0   101 -1.1591243105e+02 -1.0306696707e+02 -1.5129447025e+03  1.5305041046e+03  1.7141368069e+02  4.068386e-13 9.
        6     2     1     2   102     0  1.1591243105e+02  1.0306696707e+02 -8.0415905412e+02  8.3665125804e+02  1.7104108242e+02  5.117618e-14 9.
      -24     2     3     0     0     0 -6.2013050418e+01 -1.3387326121e+02 -1.1687284299e+03  1.1807012267e+03  7.9759485791e+01  3.252061e-14 9.
       -5     1     3     0     0   101 -5.3899380628e+01  3.0806294146e+01 -3.4421627267e+02  3.4980287787e+02  4.8000000000e+00 0. 9.
       24     2     4     0     0     0  4.9979962216e+01  1.8255516903e+01 -1.8781541634e+02  2.1099752604e+02  8.0087857132e+01  3.731258e-13 9.
        5     1     4     0   102     0  6.5932468830e+01  8.4811450165e+01 -6.1634363778e+02  6.2565373200e+02  4.8000000000e+00 0. 9.
        1     1     5     0   103     0  8.6376299129e+00 -6.4606854326e+01 -3.5019794912e+02  3.5621253030e+02  3.3000000000e-01 0. 9.
       -2     1     5     0     0   103 -7.0650680330e+01 -6.9266406888e+01 -8.1853048075e+02  8.2448869644e+02  3.3000000000e-01 0. 9.
      -13     1     7     0     0     0  4.2408075420e+01  4.6090583646e+01 -9.4880673766e+01  1.1368878652e+02  1.0566000000e-01  2.338670e+05 9.
       14     1     7     0     0     0  7.5718867961e+00 -2.7835066743e+01 -9.2934742574e+01  9.7308739522e+01  0.0000000000e+00 0. 9.
#pdf   -2    2  3.850124e-03  3.603276e-01  2.308973e+02  8.817537e-01  2.248661e-01
</event>
<event>
    12  9999  1.000000e+00  1.918883e+02  7.883999e-03  1.062691e-01
       21    -1     0     0   101   102  0.0000000000e+00  0.0000000000e+00  3.8780599993e+02  3.8780599993e+02  0.0000000000e+00 0. 9.
       21    -1     0     0   102   103  0.0000000000e+00  0.0000000000e+00 -1.2786160688e+02  1.2786160688e+02  0.0000000000e+00 0. 9.
        6     2     1     2   101     0 -2.9979030639e+01  9.8092042569e+01  2.5669853065e+02  3.1618898700e+02  1.5349445842e+02  7.860570e-15 9.
       -6     2     1     2     0   103  2.9979030639e+01 -9.8092042569e+01  3.2458623985e+00  1.9947861981e+02  1.7105669541e+02  4.234677e-14 9.
       24     2     3     0     0     0  1.9695725009e+01  7.1048551274e+00  1.1971336444e+02  1.4433374155e+02  7.7862306494e+01  1.612463e-13 9.
        5     1     3     0   101     0 -4.9674755648e+01  9.0987187441e+01  1.3698516621e+02  1.7185524545e+02  4.8000000000e+00 0. 9.
      -24     2     4     0     0     0  1.2466183166e+01 -3.2864200795e+01  6.3626656234e+01  1.0875788660e+02  8.0897868318e+01  3.331743e-14 9.
       -5     1     4     0     0   103  1.7512847473e+01 -6.5227841774e+01 -6.0380793836e+01  9.0720733205e+01  4.8000000000e+00 0. 9.
      -13     1     5     0     0     0  4.7837382156e+01 -2.2186902162e+00  9.2165241924e+01  1.0386424168e+02  1.0566000000e-01  2.009051e+05 9.
       14     1     5     0     0     0 -2.8141657147e+01  9.3235453436e+00  2.7548122520e+01  4.0469499863e+01  0.0000000000e+00 0. 9.
        1     1     7     0   104     0  4.2539658922e+00 -5.7109438058e+01  2.5161394996e+01  6.2552288842e+01  3.3000000000e-01 0. 9.
       -2     1     7     0     0   104  8.2122172738e+00  2.4245237263e+01  3.8465261238e+01  4.6205597763e+01  3.3000000000e-01 0. 9.
#pdf   21   21  5.966246e-02  1.967102e-02  1.846113e+02  1.569599e+00  4.686757e+00
</event>
<event>
    12  9999  1.000000e+00  1.767443e+02  7.876597e-03  1.073458e-01
       21    -1     0     0   101   102  0.0000000000e+00  0.0000000000e+00  3.8326030276e+02  3.8326030276e+02  0.0000000000e+00 0. 9.
       21    -1     0     0   102   103  0.0000000000e+00  0.0000000000e+00 -1.6419503479e+02  1.6419503479e+02  0.0000000000e+00 0. 9.
        6     2     1     2   101     0  3.6933040348e+01  1.7754361349e+01  3.0347207343e+02  3.5069245391e+02  1.7091117887e+02  4.942443e-13 9.
       -6     2     1     2     0   103 -3.6933040348e+01 -1.7754361349e+01 -8.4406805464e+01  1.9676288364e+02  1.7295044595e+02  7.750171e-15 9.
       24     2     3     0     0     0  2.8778154193e+01 -5.2464564720e+01  2.1348439623e+02  2.3615852098e+02  8.1329864647e+01  1.122884e-14 9.
        5     1     3     0   101     0  8.1548861547e+00  7.0218926069e+01  8.9987677196e+01  1.1453393294e+02  4.8000000000e+00 0. 9.
      -24     2     4     0     0     0  4.6266126656e+01 -1.8441671814e+01 -5.1100021157e+01  1.0701347881e+02  7.9749750785e+01  9.300705e-14 9.
       -5     1     4     0     0   103 -8.3199167004e+01  6.8731046505e-01 -3.3306784306e+01  8.9749404826e+01  4.8000000000e+00 0. 9.
      -11     1     5     0     0     0 -1.4738882772e+01  1.2117525482e+01  7.3861977559e+01  7.6286701452e+01  5.1100000000e-04 0. 9.
       12     1     5     0     0     0  4.3517036965e+01 -6.4582090202e+01  1.3962241868e+02  1.5987181952e+02  0.0000000000e+00 0. 9.
       15     1     7     0     0     0  3.3686875406e+01 -9.9716121848e-01  1.5419076214e+01  3.7103974257e+01  1.7768200000e+00  1.077483e-01 9.
      -16     1     7     0     0     0  1.2579251250e+01 -1.7444510596e+01 -6.6519097372e+01  6.9909504555e+01  0.0000000000e+00 0. 9.
#pdf   21   21  5.896312e-02  2.526077e-02  1.757552e+02  1.596242e+00  3.760302e+00
</event>
<event>
    12  9999  1.000000e+00  1.782477e+02  7.877359e-03  1.072338e-01
       21    -1     0     0   101   102  0.0000000000e+00  0.0000000000e+00  6.9821874490e+01  6.9821874490e+01  0.0000000000e+00 0. 9.
       21    -1     0     0   102   103  0.0000000000e+00  0.0000000000e+00 -8.2998908613e+02  8.2998908613e+02  0.0000000000e+00 0. 9.
        6     2     1     2   101     0  5.0863732368e+01 -1.3102201638e+01 -7.8944454229e+01  1.9592146081e+02  1.7144738259e+02  5.356704e-13 9.
       -6     2     1     2     0   103 -5.0863732368e+01  1.3102201638e+01 -6.8122275741e+02  7.0388949981e+02  1.6922528110e+02  4.645833e-13 9.
       24     2     3     0     0     0  7.1676050398e+01 -1.7787205069e+01 -1.1188809755e+02  1.5638128537e+02  8.0512850989e+01  1.216207e-14 9.
        5     1     3     0   101     0 -2.0812318030e+01  4.6850034311e+00  3.2943643323e+01  3.9540175446e+01  4.8000000000e+00 0. 9.
      -24     2     4     0     0     0  7.7977720583e+00 -4.6229724771e+01 -3.8782795747e+02  3.9882393599e+02  8.0324433537e+01  2.958277e-13 9.
       -5     1     4     0     0   103 -5.8661504426e+01  5.9331926409e+01 -2.9339479994e+02  3.0506556381e+02  4.8000000000e+00 0. 9.
       -3     1     5     0     0   104  7.7201854375e+01  1.1734381335e+01 -7.0386777756e+01  1.0513025496e+02  5.0000000000e-01 0. 9.
        4     1     5     0   104     0 -5.5258039772e+00 -2.9521586404e+01 -4.1501319796e+01  5.1251030411e+01  1.5000000000e+00 0. 9.
        3     1     7     0   105     0 -3.5728062573e+01 -1.3446767604e+01 -1.7614997262e+02  1.8023976494e+02  5.0000000000e-01 0. 9.
       -4     1     7     0     0   105  4.3525834632e+01 -3.2782957167e+01 -2.1167798486e+02  2.1858417105e+02  1.5000000000e+00 0. 9.
#pdf   21   21  1.074183e-02  1.276906e-01  1.771891e+02  7.671916e+00  5.835880e-01
</event>
<event>
    12  9999  1.000000e+00  1.753276e+02  7.875873e-03  1.074523e-01
       -2    -1     0     0     0   101  0.0000000000e+00  0.0000000000e+00  2.7564397857e+02  2.7564397857e+02  0.0000000000e+00 0. 9.
        2    -1     0     0   102     0  0.0000000000e+00  0.0000000000e+00 -4.0984662535e+02  4.0984662535e+02  0.0000000000e+00 0. 9.
       -6     2     1     2     0   101 -3.2096315749e+01 -2.4654324569e+01 -3.5951535657e+02  3.9996416678e+02  1.7053455337e+02  1.934212e-13 9.
        6     2     1     2   102     0  3.2096315749e+01  2.4654324569e+01  2.2531270979e+02  2.8552643713e+02  1.7065028539e+02  1.831326e-13 9.
      -24     2     3     0     0     0 -5.8511841569e+00  2.8458139562e+01 -3.1253341232e+02  3.2420082562e+02  8.1147639845e+01  1.895517e-14 9.
       -5     1     3     0     0   101 -2.6245131592e+01 -5.3112464130e+01 -4.6981944251e+01  7.5763341161e+01  4.8000000000e+00 0. 9.
       24     2     4     0     0     0  8.0160763309e+01  4.2138941045e+01  1.5513244402e+02  1.9855395507e+02  8.4594087027e+01  1.531064e-13 9.
        5     1     4     0   102     0 -4.8064447560e+01 -1.7484616476e+01  7.0180265769e+01  8.6972482062e+01  4.8000000000e+00 0. 9.
        3     1     5     0   103     0  3.2435967288e+01  2.0813984739e+01 -2.2589741468e+02  2.2916196433e+02  5.0000000000e-01 0. 9.
       -4     1     5     0     0   103 -3.8287151445e+01  7.6441548228e+00 -8.6635997635e+01  9.5038861288e+01  1.5000000000e+00 0. 9.
       -1     1     7     0     0   104  2.2502049490e+01 -2.5637209785e+01  5.3723805298e+01  6.3639334633e+01  3.3000000000e-01 0. 9.
        2     1     7     0   104     0  5.7658713819e+01  6.7776150830e+01  1.0140863872e+02  1.3491462044e+02  3.3000000000e-01 0. 9.
#pdf   -2    2  4.240677e-02  6.305333e-02  1.752713e+02  1.823320e-01  6.117653e-01
</event>
<event>
    12  9999  1.000000e+00  2.075443e+02  7.891074e-03  1.052622e-01
       21    -1     0     0   101   102  0.0000000000e+00  0.0000000000e+00  6.2204386172e+02  6.2204386172e+02  0.0000000000e+00 0. 9.
       21    -1     0     0   103   101  0.0000000000e+00  0.0000000000e+00 -9.0517301317e+01  9.0517301317e+01  0.0000000000e+00 0. 9.
        6     2     1     2   103     0  5.3893723232e+01 -1.0718002724e+02  9.1066569114e+01  2.2476489596e+02  1.6683538834e+02  1.439369e-13 9.
       -6     2     1     2     0   102 -5.3893723232e+01  1.0718002724e+02  4.4045999129e+02  4.8779626708e+02  1.7189561544e+02  2.542747e-13 9.
       24     2     3     0     0     0 -2.5171539210e+01 -3.4075800949e+01  2.8382859236e+01  1.0007395358e+02  8.6107159346e+01  1.930485e-13 9.
        5     1     3     0   103     0  7.9065262442e+01 -7.3104226291e+01  6.2683709878e+01  1.2469094238e+02  4.8000000000e+00 0. 9.
      -24     2     4     0     0     0 -6.8327033308e+01  4.4846704737e+01  3.9864824214e+02  4.1121280998e+02  5.9124814792e+01  3.676924e-14 9.
       -5     1     4     0     0   102  1.4433310077e+01  6.2333322504e+01  4.1811749148e+01  7.6583457097e+01  4.8000000000e+00 0. 9.
       -3     1     5     0     0   104 -3.0269659893e+01  5.2028551026e+00 -2.0658037217e+01  3.7017921510e+01  5.0000000000e-01 0. 9.
        4     1     5     0   104     0  5.0981206830e+00 -3.9278656052e+01  4.9040896453e+01  6.3056032072e+01  1.5000000000e+00 0. 9.
        1     1     7     0   105     0 -3.3961774197e+01  3.9322320625e+01  1.2513571276e+02  1.3549428960e+02  3.3000000000e-01 0. 9.
       -2     1     7     0     0   105 -3.4365259111e+01  5.5243841118e+00  2.7351252938e+02  2.7571852038e+02  3.3000000000e-01 0. 9.
#pdf   21   21  9.569906e-02  1.392574e-02  2.054900e+02  8.657130e-01  6.250752e+00
</event>
<event>
    12  9999  1.000000e+00  1.899524e+02  7.883085e-03  1.064007e-01
       21    -1     0     0   101   102  0.0000000000e+00  0.0000000000e+00  9.3180091680e+02  9.3180091680e+02  0.0000000000e+00 0. 9.
       21    -1     0     0   102   103  0.0000000000e+00  0.0000000000e+00 -5.0653956301e+01  5.0653956301e+01  0.0000000000e+00 0. 9.
        6     2     1     2   101     0 -3.6216585778e+01  7.6463380203e+01  2.0330442353e+02  2.7867173889e+02  1.7078337106e+02  1.275230e-13 9.
       -6     2     1     2     0   103  3.6216585778e+01 -7.6463380203e+01  6.7784253697e+02  7.0378313421e+02  1.6935733075e+02  4.610345e-14 9.
       24     2     3     0     0     0  2.3474447260e+01  2.4268971642e+01  1.7094367513e+02  1.9289567144e+02  8.2746403753e+01  2.170108e-14 9.
        5     1     3     0   101     0 -5.9691033038e+01  5.2194408562e+01  3.2360748397e+01  8.5776067450e+01  4.8000000000e+00 0. 9.
      -24     2     4     0     0     0 -4.1430374207e+01 -4.6015904994e+01  4.4086621701e+02  4.5251253235e+02  8.1059430096e+01  7.417644e-14 9.
       -5     1     4     0     0   103  7.7646959986e+01 -3.0447475209e+01  2.3697631996e+02  2.5127060187e+02  4.8000000000e+00 0. 9.
       -1     1     5     0     0   104  4.7443580041e+01 -5.1716795525e+00  6.7198883484e+01  8.2422317354e+01  3.3000000000e-01 0. 9.
        2     1     5     0   104     0 -2.3969132781e+01  2.9440651194e+01  1.0374479165e+02  1.1047335409e+02  3.3000000000e-01 0. 9.
        1     1     7     0   105     0  2.0162948163e+01 -1.3222983437e+01  2.0864351989e+02  2.1003242383e+02  3.3000000000e-01 0. 9.
       -2     1     7     0     0   105 -6.1593322370e+01 -3.2792921557e+01  2.3222269712e+02  2.4248010851e+02  3.3000000000e-01 0. 9.
#pdf   21   21  1.433540e-01  7.792916e-03  1.893151e+02  4.836656e-01  9.784547e+00
</event>
<event>
    12  9999  1.000000e+00  1.706899e+02  7.873462e-03  1.078116e-01
       21    -1     0     0   101   102  0.0000000000e+00  0.0000000000e+00  4.4805921879e+01  4.4805921879e+01  0.0000000000e+00 0. 9.
       21    -1     0     0   102   103  0.0000000000e+00  0.0000000000e+00 -8.7317578950e+02  8.7317578950e+02  0.0000000000e+00 0. 9.
        6     2     1     2   101     0  2.1738857884e+00 -1.9513385414e+00 -1.8272385200e+02  2.5021838432e+02  1.7091723219e+02  3.561555e-13 9.
       -6     2     1     2     0   103 -2.1738857884e+00  1.9513385414e+00 -6.4564601562e+02  6.6776332706e+02  1.7041288090e+02  2.012590e-13 9.
       24     2     3     0     0     0  1.6341674225e+00  5.1863572841e+01 -5.1070545615e+01  1.0790897119e+02  7.9647000843e+01  2.229646e-14 9.
        5     1     3     0   101     0  5.3971836588e-01 -5.3814911383e+01 -1.3165330638e+02  1.4230941313e+02  4.8000000000e+00 0. 9.
      -24     2     4     0     0     0 -2.1161432750e+01 -2.0481621923e+01 -6.2657538860e+02  6.3240100997e+02  8.0417763849e+01  1.580588e-13 9.
       -5     1     4     0     0   103  1.8987546962e+01  2.2432960465e+01 -1.9070627024e+01  3.5362317089e+01  4.8000000000e+00 0. 9.
      -13     1     5     0     0     0 -2.2085639808e+01 -1.1207110990e+01 -2.6276307153e+01  3.6108590448e+01  1.0566000000e-01  5.956644e+05 9.
       14     1     5     0     0     0  2.3719807231e+01  6.3070683832e+01 -2.4794238462e+01  7.1800380744e+01  0.0000000000e+00 0. 9.
        3     1     7     0   104     0  1.5178802904e+01 -2.1679675747e+01 -7.3315442071e+01  7.7947472340e+01  5.0000000000e-01 0. 9.
       -2     1     7     0     0   104 -3.6340235654e+01  1.1980538237e+00 -5.5325994653e+02  5.5445353763e+02  3.3000000000e-01 0. 9.
#pdf   21   21  6.893219e-03  1.343347e-01  1.704379e+02  1.066794e+01  5.428166e-01
</event>
<event>
    12  9999  1.000000e+00  2.225519e+02  7.897383e-03  1.043820e-01
       21    -1     0     0   101   102  0.0000000000e+00  0.0000000000e+00  2.1018564585e+02  2.1018564585e+02  0.0000000000e+00 0. 9.
       21    -1     0     0   102   103  0.0000000000e+00  0.0000000000e+00 -2.4340824093e+02  2.4340824093e+02  0.0000000000e+00 0. 9.
        6     2     1     2   101     0 -1.4110226735e+02 -8.4083105198e+00  2.3899310887e+01  2.2370019967e+02  1.7172668033e+02  6.633730e-14 9.
       -6     2     1     2     0   103  1.4110226735e+02  8.4083105198e+00 -5.7121905969e+01  2.2989368710e+02  1.7206872374e+02  1.633444e-14 9.
       24     2     3     0     0     0 -1.7004186893e+02 -8.4588539167e+00  3.6503011305e+01  1.9177221261e+02  8.0363687674e+01  9.944367e-14 9.
        5     1     3     0   101     0  2.8939601576e+01  5.0543396902e-02 -1.2603700418e+01  3.1927987068e+01  4.8000000000e+00 0. 9.
      -24     2     4     0     0     0  6.9694863985e+01  9.7954726144e+00 -1.0431880701e+02  1.4415262959e+02  7.0315302554e+01  6.714804e-16 9.
       -5     1     4     0     0   103  7.1407403365e+01 -1.3871620946e+00  4.7196901041e+01  8.5741057504e+01  4.8000000000e+00 0. 9.
      -13     1     5     0     0     0 -1.0700972272e+02 -4.4230800604e+01  2.2355458584e+01  1.1792888608e+02  1.0566000000e-01  6.346031e+03 9.
       14     1     5     0     0     0 -6.3032146205e+01  3.5771946687e+01  1.4147552721e+01  7.3843326530e+01  0.0000000000e+00 0. 9.
        1     1     7     0   104     0  4.6024784137e+01 -2.0040604587e+01 -2.4817807077e+01  5.5999455669e+01  3.3000000000e-01 0. 9.
       -2     1     7     0     0   104  2.3670079848e+01  2.9836077202e+01 -7.9500999933e+01  8.8153173925e+01  3.3000000000e-01 0. 9.
#pdf   21   21  3.233625e-02  3.744742e-02  2.224199e+02  2.957385e+00  2.557266e+00
</event>
<event>
    12  9999  1.000000e+00  1.889141e+02  7.882591e-03  1.064720e-01
       21    -1     0     0   101   102  0.0000000000e+00  0.0000000000e+00  5.8682800311e+01  5.8682800311e+01  0.0000000000e+00 0. 9.
       21    -1     0     0   102   103  0.0000000000e+00  0.0000000000e+00 -6.1309378257e+02  6.1309378257e+02  0.0000000000e+00 0. 9.
        6     2     1     2   101     0 -6.0006698536e+01 -4.4067534048e+01 -2.4250716046e+02  3.0522006757e+02  1.6972570621e+02  5.546128e-14 9.
       -6     2     1     2     0   103  6.0006698536e+01  4.4067534048e+01 -3.1190382181e+02  3.6655651531e+02  1.7758641117e+02  1.488136e-13 9.
       24     2     3     0     0     0 -8.5335619795e+01  8.0504005222e+00 -1.5076253230e+02  1.9660169826e+02  9.2606207456e+01  4.843316e-14 9.
        5     1     3     0   101     0  2.5328921259e+01 -5.2117934570e+01 -9.1744628157e+01  1.0861836931e+02  4.8000000000e+00 0. 9.
      -24     2     4     0     0     0  4.3170814553e+01 -2.0854176704e+01 -7.3744739134e+01  1.1908719565e+02  8.0279871087e+01  9.450005e-14 9.
       -5     1     4     0     0   103  1.6835883983e+01  6.4921710752e+01 -2.3815908267e+02  2.4746931966e+02  4.8000000000e+00 0. 9.
       -1     1     5     0     0   104 -1.1537796657e+01 -2.9422502967e+01 -8.5640275009e+01  9.1286198498e+01  3.3000000000e-01 0. 9.
        2     1     5     0   104     0 -7.3797823138e+01  3.7472903489e+01 -6.5122257291e+01  1.0531549976e+02  3.3000000000e-01 0. 9.
        1     1     7     0   105     0 -7.5999960432e+00 -2.6187781160e+01 -6.0475427030e+01  6.6339626140e+01  3.3000000000e-01 0. 9.
       -2     1     7     0     0   105  5.0770810596e+01  5.3336044566e+00 -1.3269312104e+01  5.2747569506e+01  3.3000000000e-01 0. 9.
#pdf   21   21  9.028123e-03  9.432212e-02  1.853364e+02  8.765077e+00  8.919582e-01
</event>
<event>
    12  9999  1.000000e+00  2.128933e+02  7.893372e-03  1.049396e-01
       21    -1     0     0   101   102  0.0000000000e+00  0.0000000000e+00  1.3318598239e+03  1.3318598239e+03  0.0000000000e+00 0. 9.
       21    -1     0     0   102   103  0.0000000000e+00  0.0000000000e+00 -3.8764486362e+01  3.8764486362e+01  0.0000000000e+00 0. 9.
        6     2     1     2   101     0 -1.0863347715e+01 -1.1962857109e+02  8.9449303688e+02  9.2024354749e+02  1.7972586435e+02  6.541314e-14 9.
       -6     2     1     2     0   103  1.0863347715e+01  1.1962857109e+02  3.9860230065e+02  4.5038076276e+02  1.7184303897e+02  2.265033e-14 9.
       24     2     3     0     0     0 -7.0145892605e+01 -4.9510896322e+01  6.1437390286e+02  6.2542041799e+02  7.9521265172e+01  9.373336e-14 9.
        5     1     3     0   101     0  5.9282544890e+01 -7.0117674769e+01  2.8011913402e+02  2.9482312950e+02  4.8000000000e+00 0. 9.
      -24     2     4     0     0     0 -4.7850524328e+01  8.4512893802e+01  3.2950161194e+02  3.5302381776e+02  8.1378140398e+01  1.826751e-13 9.
       -5     1     4     0     0   103  5.8713872043e+01  3.5115677289e+01  6.9100688707e+01  9.7356945009e+01  4.8000000000e+00 0. 9.
      -13     1     5     0     0     0  1.4049918631e+01 -2.0891621733e+01  8.5777972439e+01  8.9396486464e+01  1.0566000000e-01  5.337980e+05 9.
       14     1     5     0     0     0 -8.4195811236e+01 -2.8619274589e+01  5.2859593042e+02  5.3602393153e+02  0.0000000000e+00 0. 9.
        1     1     7     0   104     0  2.2936220437e+01  2.7308380791e+01  8.9343623383e+01  9.6198803572e+01  3.3000000000e-01 0. 9.
       -2     1     7     0     0   104 -7.0786744765e+01  5.7204513011e+01  2.4015798856e+02  2.5682501418e+02  3.3000000000e-01 0. 9.
#pdf   21   21  2.049015e-01  5.963767e-03  2.096641e+02  2.521882e-01  1.191303e+01
</event>
<event>
    12  9999  1.000000e+00  1.848708e+02  7.880643e-03  1.067543e-01
       21    -1     0     0   101   102  0.0000000000e+00  0.0000000000e+00  7.7360946725e+02  7.7360946725e+02  0.0000000000e+00 0. 9.
       21    -1     0     0   103   101  0.0000000000e+00  0.0000000000e+00 -1.7001356829e+02  1.7001356829e+02  0.0000000000e+00 0. 9.
        6     2     1     2   103     0  5.9001120022e+01 -3.8396487499e+01 -1.0426798422e+02  2.1192130722e+02  1.7053857483e+02  1.641038e-13 9.
       -6     2     1     2     0   102 -5.9001120022e+01  3.8396487499e+01  7.0786388318e+02  7.3170172832e+02  1.7134970003e+02  7.488806e-14 9.
       24     2     3     0     0     0  4.4032957965e+01 -8.9731019191e+01 -5.9894352619e+01  1.4226975160e+02  8.1625924507e+01  1.307505e-13 9.
        5     1     3     0   103     0  1.4968162058e+01  5.1334531692e+01 -4.4373631599e+01  6.9651555623e+01  4.8000000000e+00 0. 9.
      -24     2     4     0     0     0  4.5000245951e+00  7.5621152045e+01  4.4919726970e+02  4.6272305268e+02  8.1213468835e+01  4.695424e-14 9.
       -5     1     4     0     0   102 -6.3501144617e+01 -3.7224664546e+01  2.5866661348e+02  2.6897867564e+02  4.8000000000e+00 0. 9.
       -3     1     5     0     0   104 -1.3578746155e+01 -4.6513239907e+01 -4.9878380338e+01  6.9541114881e+01  5.0000000000e-01 0. 9.
        4     1     5     0   104     0  5.7611704119e+01 -4.3217779284e+01 -1.0015972281e+01  7.2728636716e+01  1.5000000000e+00 0. 9.
        1     1     7     0   105     0 -2.8826973560e+01  7.5850296285e-01  1.0316772121e+02  1.0712262754e+02  3.3000000000e-01 0. 9.
       -2     1     7     0     0   105  3.3326998155e+01  7.4862649083e+01  3.4602954849e+02  3.5560042514e+02  3.3000000000e-01 0. 9.
#pdf   21   21  1.190168e-01  2.615593e-02  1.844961e+02  6.447611e-01  3.638176e+00
</event>
<event>
    12  9999  1.000000e+00  2.026529e+02  7.888921e-03  1.055663e-01
       21    -1     0     0   101   102  0.0000000000e+00  0.0000000000e+00  5.9217366274e+02  5.9217366274e+02  0.0000000000e+00 0. 9.
       21    -1     0     0   103   101  0.0000000000e+00  0.0000000000e+00 -1.5997410549e+02  1.5997410549e+02  0.0000000000e+00 0. 9.
        6     2     1     2   103     0 -6.8407593393e+01 -8.6027568451e+01 -6.7351969043e+01  2.1272709785e+02  1.6922230662e+02  4.603852e-13 9.
       -6     2     1     2     0   102  6.8407593393e+01  8.6027568451e+01  4.9955152629e+02  5.3942067038e+02  1.7129679171e+02  8.728072e-14 9.
       24     2     3     0     0     0  4.6328812225e+00 -5.1983582099e+01  1.3998402154e+01  9.8119825688e+01  8.1901089943e+01  5.417398e-14 9.
        5     1     3     0   103     0 -7.3040474615e+01 -3.4043986352e+01 -8.1350371197e+01  1.1460727216e+02  4.8000000000e+00 0. 9.
      -24     2     4     0     0     0  4.3317730062e+01  7.6761400077e+01  1.6392738494e+02  2.0269828121e+02  8.0284913841e+01  2.848295e-15 9.
       -5     1     4     0     0   102  2.5089863331e+01  9.2661683749e+00  3.3562414134e+02  3.3672238917e+02  4.8000000000e+00 0. 9.
       -3     1     5     0     0   104 -2.9380590740e+01 -1.2077769218e+01  2.9569380718e+01  4.3401496490e+01  5.0000000000e-01 0. 9.
        4     1     5     0   104     0  3.4013471963e+01 -3.9905812881e+01 -1.5570978564e+01  5.4718329197e+01  1.5000000000e+00 0. 9.
        3     1     7     0   105     0  5.0360417886e+01  7.4018187892e+01  1.7056548982e+02  1.9263359039e+02  5.0000000000e-01 0. 9.
       -2     1     7     0     0   105 -7.0426878243e+00  2.7432121843e+00 -6.6381048777e+00  1.0064690817e+01  3.3000000000e-01 0. 9.
#pdf   21   21  9.110364e-02  2.461140e-02  2.017834e+02  9.262579e-01  3.836023e+00
</event>
<event>
    12  9999  1.000000e+00  1.776507e+02  7.877057e-03  1.072781e-01
       21    -1     0     0   101   102  0.0000000000e+00  0.0000000000e+00  2.1848656650e+02  2.1848656650e+02  0.0000000000e+00 0. 9.
       21    -1     0     0   102   103  0.0000000000e+00  0.0000000000e+00 -1.6691225371e+02  1.6691225371e+02  0.0000000000e+00 0. 9.
        6     2     1     2   101     0  4.8073210758e+01  1.0818171765e+01  9.6509287633e+01  2.0236397896e+02  1.7090661470e+02  2.267172e-13 9.
       -6     2     1     2     0   103 -4.8073210758e+01 -1.0818171765e+01 -4.4934974852e+01  1.8303484125e+02  1.7045390788e+02  1.311527e-13 9.
       24     2     3     0     0     0 -1.0499131727e+01  5.9658592266e+01  4.6060321252e+01  1.1079846041e+02  8.0531771599e+01  1.383626e-13 9.
        5     1     3     0   101     0  5.8572342485e+01 -4.8840420501e+01  5.0448966381e+01  9.1565518552e+01  4.8000000000e+00 0. 9.
      -24     2     4     0     0     0 -2.0377304542e+00  2.5367671174e+01 -7.8405960161e+01  1.1541807163e+02  8.0784686569e+01  2.749353e-14 9.
       -5     1     4     0     0   103 -4.6035480303e+01 -3.6185842939e+01  3.3470985309e+01  6.7616769618e+01  4.8000000000e+00 0. 9.
       -3     1     5     0     0   104  1.9801997555e+01  6.6565665154e+01  3.5046254806e+01  7.7792010262e+01  5.0000000000e-01 0. 9.
        4     1     5     0   104     0 -3.0301129282e+01 -6.9070728879e+00  1.1014066446e+01  3.3006450147e+01  1.5000000000e+00 0. 9.
       11     1     7     0     0     0  3.0851412650e+01 -2.4060920682e+00 -6.2105228377e+01  6.9387739073e+01  5.1100000000e-04 0. 9.
      -12     1     7     0     0     0 -3.2889143105e+01  2.7773763242e+01 -1.6300731784e+01  4.6030332559e+01  0.0000000000e+00 0. 9.
#pdf   21   21  3.361332e-02  2.567881e-02  1.774334e+02  2.875204e+00  3.703750e+00
</event>
<event>
    12  9999  1.000000e+00  1.824170e+02  7.879440e-03  1.069294e-01
       21    -1     0     0   101   102  0.0000000000e+00  0.0000000000e+00  2.0941311711e+02  2.0941311711e+02  0.0000000000e+00 0. 9.
       21    -1     0     0   103   101  0.0000000000e+00  0.0000000000e+00 -2.9357802426e+02  2.9357802426e+02  0.0000000000e+00 0. 9.
        6     2     1     2   103     0 -2.7754723141e+01 -6.0340986297e+01 -2.1256101289e+02  2.8086406192e+02  1.7114636366e+02  5.341701e-15 9.
       -6     2     1     2     0   102  2.7754723141e+01  6.0340986297e+01  1.2839610575e+02  2.2212707945e+02  1.6865206838e+02  3.011469e-14 9.
       24     2     3     0     0     0 -5.2429084909e+01 -9.7375985253e+01 -1.7414827991e+02  2.2188107004e+02  8.1686561923e+01  2.420178e-14 9.
        5     1     3     0   103     0  2.4674361768e+01  3.7034998955e+01 -3.8412732987e+01  5.8982991885e+01  4.8000000000e+00 0. 9.
      -24     2     4     0     0     0  8.1416986498e+01  3.1317063798e+01  1.0174656292e+02  1.5537931006e+02  7.8618590370e+01  3.922019e-13 9.
       -5     1     4     0     0   102 -5.3662263357e+01  2.9023922499e+01  2.6649542826e+01  6.6747769391e+01  4.8000000000e+00 0. 9.
       -3     1     5     0     0   104 -3.6530936676e+01 -2.6043068599e+01 -1.5950323483e+01  4.7617366325e+01  5.0000000000e-01 0. 9.
        2     1     5     0   104     0 -1.5898148232e+01 -7.1332916654e+01 -1.5819795642e+02  1.7426370371e+02  3.3000000000e-01 0. 9.
       13     1     7     0     0     0  1.7622961131e+01  3.2999105912e-01 -1.2007455099e+01  2.1327629852e+01  1.0566000000e-01  1.144399e+05 9.
      -14     1     7     0     0     0  6.3794025367e+01  3.0987072739e+01  1.1375401802e+02  1.3405168021e+02  0.0000000000e+00 0. 9.
#pdf   21   21  3.221740e-02  4.516585e-02  1.812591e+02  2.993105e+00  2.131426e+00
</event>
<event>
    12  9999  1.000000e+00  1.990852e+02  7.887319e-03  1.057940e-01
       21    -1     0     0   101   102  0.0000000000e+00  0.0000000000e+00  2.0630337376e+02  2.0630337376e+02  0.0000000000e+00 0. 9.
       21    -1     0     0   102   103  0.0000000000e+00  0.0000000000e+00 -1.9449041982e+02  1.9449041982e+02  0.0000000000e+00 0. 9.
        6     2     1     2   101     0  3.4563934784e+01 -9.4123594713e+01  2.8027673088e+01  2.0092264186e+02  1.7184423437e+02  2.334934e-13 9.
       -6     2     1     2     0   103 -3.4563934784e+01  9.4123594713e+01 -1.6214719145e+01  1.9987115172e+02  1.7213844284e+02  4.787217e-13 9.
       24     2     3     0     0     0  6.8280772717e+01 -8.4693869079e+01  1.1345947298e+01  1.6184496459e+02  1.1928850180e+02  1.822406e-14 9.
        5     1     3     0   101     0 -3.3716837933e+01 -9.4297256338e+00  1.6681725790e+01  3.9077677273e+01  4.8000000000e+00 0. 9.
      -24     2     4     0     0     0 -4.6597841004e+01  1.2975497495e+02 -8.9809934123e-01  1.5898045597e+02  7.9159752959e+01  2.730637e-14 9.
       -5     1     4     0     0   103  1.2033906221e+01 -3.5631380236e+01 -1.5316619804e+01  4.0890695747e+01  4.8000000000e+00 0. 9.
       -1     1     5     0     0   104  3.1615306687e+01  1.6485535890e+01 -2.9949816423e+01  4.6566091894e+01  3.3000000000e-01 0. 9.
        4     1     5     0   104     0  3.6665466030e+01 -1.0117940497e+02  4.1295763720e+01  1.1527887270e+02  1.5000000000e+00 0. 9.
        3     1     7     0   105     0 -4.9172276627e+01  3.0697355616e+01 -1.2187673220e+01  5.9237064486e+01  5.0000000000e-01 0. 9.
       -4     1     7     0     0   105  2.5744356223e+00  9.9057619333e+01  1.1289573879e+01  9.9743391486e+01  1.5000000000e+00 0. 9.
#pdf   21   21  3.173898e-02  2.992160e-02  1.989582e+02  3.025525e+00  3.201084e+00
</event>
<event>
    12  9999  1.000000e+00  2.244213e+02  7.898140e-03  1.042775e-01
        4    -1     0     0   101     0  0.0000000000e+00  0.0000000000e+00  8.5044829633e+01  8.5044829633e+01  0.0000000000e+00 0. 9.
       -4    -1     0     0     0   102  0.0000000000e+00  0.0000000000e+00 -6.2643895256e+02  6.2643895256e+02  0.0000000000e+00 0. 9.
        6     2     1     2   101     0 -1.0111004928e+02  1.0513341767e+02 -1.8682512703e+02  2.9151697879e+02  1.6971223662e+02  8.674435e-14 9.
       -6     2     1     2     0   102  1.0111004928e+02 -1.0513341767e+02 -3.5456899590e+02  4.1996680340e+02  1.7139622378e+02  2.224556e-13 9.
       24     2     3     0     0     0 -5.5510511389e+01  1.1088887025e+02 -6.3769966507e+01  1.6007096090e+02  7.8602452082e+01  3.373755e-14 9.
        5     1     3     0   101     0 -4.5599537892e+01 -5.7554525818e+00 -1.2305516052e+02  1.3144601790e+02  4.8000000000e+00 0. 9.
      -24     2     4     0     0     0  4.5436962747e+01  5.7790715331e+00 -1.6621408184e+02  1.9435278239e+02  8.9710466330e+01  4.436634e-14 9.
       -5     1     4     0     0   102  5.5673086533e+01 -1.1091248920e+02 -1.8835491406e+02  2.2561402101e+02  4.8000000000e+00 0. 9.
      -11     1     5     0     0     0  1.7715461805e+01  3.1605930344e+01 -3.3562609286e+00  3.6387317950e+01  5.1100000000e-04 0. 9.
       12     1     5     0     0     0 -7.3225973194e+01  7.9282939908e+01 -6.0413705579e+01  1.2368364295e+02  0.0000000000e+00 0. 9.
       15     1     7     0     0     0  1.3475809395e+01 -7.5938851800e+00  7.4542368749e+00  1.7262307716e+01  1.7768200000e+00  6.993263e-02 9.
      -16     1     7     0     0     0  3.1961153352e+01  1.3372956713e+01 -1.7366831872e+02  1.7709047467e+02  0.0000000000e+00 0. 9.
#pdf    4   -4  1.308382e-02  9.637522e-02  2.237823e+02  2.674330e-01  3.788726e-02
</event>
<event>
    12  9999  1.000000e+00  2.445733e+02  7.905925e-03  1.032158e-01
       21    -1     0     0   101   102  0.0000000000e+00  0.0000000000e+00  3.1049749788e+02  3.1049749788e+02  0.0000000000e+00 0. 9.
       21    -1     0     0   103   101  0.0000000000e+00  0.0000000000e+00 -2.7710312511e+02  2.7710312511e+02  0.0000000000e+00 0. 9.
        6     2     1     2   103     0 -1.4004363253e+02  1.0498065068e+02 -1.4551099601e+02  2.8442754877e+02  1.7056501550e+02  1.914284e-13 9.
       -6     2     1     2     0   102  1.4004363253e+02 -1.0498065068e+02  1.7890536877e+02  3.0317307422e+02  1.7109537085e+02  4.513471e-13 9.
       24     2     3     0     0     0 -1.4243497163e+02  6.1959188285e+01 -5.4244823589e+01  1.8338736391e+02  8.1004704806e+01  1.619045e-13 9.
        5     1     3     0   103     0  2.3913390955e+00  4.3021462396e+01 -9.1266172418e+01  1.0104018486e+02  4.8000000000e+00 0. 9.
      -24     2     4     0     0     0  3.6694542968e+01 -9.1188898248e+01  4.8307529294e+01  1.3599029274e+02  8.0609166259e+01  7.354740e-14 9.
       -5     1     4     0     0   102  1.0334908956e+02 -1.3791752432e+01  1.3059783947e+02  1.6718278148e+02  4.8000000000e+00 0. 9.
       -3     1     5     0     0   104  6.9508139328e+00  7.5847012000e+00 -1.7356889167e+01  2.0182990566e+01  5.0000000000e-01 0. 9.
        4     1     5     0   104     0 -1.4938578556e+02  5.4374487085e+01 -3.6887934422e+01  1.6320437334e+02  1.5000000000e+00 0. 9.
       11     1     7     0     0     0 -2.0700200626e+01 -1.5643853415e+01 -6.0560284940e+00  2.6644022538e+01  5.1100000000e-04 0. 9.
      -12     1     7     0     0     0  5.7394743594e+01 -7.5545044833e+01  5.4363557788e+01  1.0934627020e+02  0.0000000000e+00 0. 9.
#pdf   21   21  4.776885e-02  4.263125e-02  2.443882e+02  1.972013e+00  2.226492e+00
</event>
<event>
    12  9999  1.000000e+00  2.612643e+02  7.911913e-03  1.024155e-01
       21    -1     0     0   101   102  0.0000000000e+00  0.0000000000e+00  3.7487049500e+02  3.7487049500e+02  0.0000000000e+00 0. 9.
       21    -1     0     0   102   103  0.0000000000e+00  0.0000000000e+00 -2.0800130768e+02  2.0800130768e+02  0.0000000000e+00 0. 9.
        6     2     1     2   101     0 -1.8744766397e+02  6.0406486646e+01  1.8669605071e+02  3.2230028163e+02  1.7388641646e+02  2.826413e-13 9.
       -6     2     1     2     0   103  1.8744766397e+02 -6.0406486646e+01 -1.9826863391e+01  2.6057152106e+02  1.6946634686e+02  2.246390e-14 9.
       24     2     3     0     0     0 -8.0354461371e+00 -6.4166751807e+00  4.9265946388e+01  8.6579785196e+01  7.0449865977e+01  1.891862e-14 9.
        5     1     3     0   101     0 -1.7941221783e+02  6.6823161826e+01  1.3743010432e+02  2.3572049643e+02  4.8000000000e+00 0. 9.
      -24     2     4     0     0     0  1.2755258132e+02 -1.0172878649e+02 -3.2413257537e+01  1.8656874606e+02  8.4491838298e+01  9.505468e-14 9.
       -5     1     4     0     0   103  5.9895082646e+01  4.1322299847e+01  1.2586394146e+01  7.4002774998e+01  4.8000000000e+00 0. 9.
       -3     1     5     0     0   104 -5.9098646224e+00  2.7180962778e+01  4.4592250675e+01  5.2559014999e+01  5.0000000000e-01 0. 9.
        4     1     5     0   104     0 -2.1255815147e+00 -3.3597637959e+01  4.6736957135e+00  3.4020770197e+01  1.5000000000e+00 0. 9.
        1     1     7     0   105     0  9.2180936421e+00 -5.3534497364e+01  1.5982573273e+00  5.4346839696e+01  3.3000000000e-01 0. 9.
       -2     1     7     0     0   105  1.1833448768e+02 -4.8194289128e+01 -3.4011514864e+01  1.3222190636e+02  3.3000000000e-01 0. 9.
#pdf   21   21  5.767238e-02  3.200020e-02  2.598161e+02  1.591861e+00  2.967704e+00
</event>
<event>
    12  9999  1.000000e+00  2.034761e+02  7.889287e-03  1.055145e-01
       21    -1     0     0   101   102  0.0000000000e+00  0.0000000000e+00  3.4832675636e+02  3.4832675636e+02  0.0000000000e+00 0. 9.
       21    -1     0     0   102   103  0.0000000000e+00  0.0000000000e+00 -1.1889985351e+02  1.1889985351e+02  0.0000000000e+00 0. 9.
        6     2     1     2   101     0  1.0223113945e+02  3.6019193939e+01  1.1060412558e+02  2.3174645238e+02  1.7240811289e+02  4.169907e-13 9.
       -6     2     1     2     0   103 -1.0223113945e+02 -3.6019193939e+01  1.1882277727e+02  2.3548015748e+02  1.7199844175e+02  8.878578e-14 9.
       24     2     3     0     0     0 -6.6621151874e+00 -9.4498538401e+00  6.8152934655e+01  1.0624617819e+02  8.0682986811e+01  9.772181e-15 9.
        5     1     3     0   101     0  1.0889325464e+02  4.5469047779e+01  4.2451190924e+01  1.2550027419e+02  4.8000000000e+00 0. 9.
      -24     2     4     0     0     0 -1.2369878937e+02 -6.0384659674e+01  1.2490398524e+02  2.0209517577e+02  7.9333201928e+01  4.351187e-14 9.
       -5     1     4     0     0   103  2.1467649915e+01  2.4365465735e+01 -6.0812079649e+00  3.3384981709e+01  4.8000000000e+00 0. 9.
      -11     1     5     0     0     0  4.8764813897e+00  9.8936888849e+00 -1.5830823708e+01  1.9294562188e+01  5.1100000000e-04 0. 9.
       12     1     5     0     0     0 -1.1538596577e+01 -1.9343542725e+01  8.3983758363e+01  8.6951615999e+01  0.0000000000e+00 0. 9.
       15     1     7     0     0     0 -3.9879703332e+01 -6.1922617104e+01  7.1696555485e+01  1.0280250194e+02  1.7768200000e+00  6.829962e-02 9.
      -16     1     7     0     0     0 -8.3819086035e+01  1.5379574295e+00  5.3207429752e+01  9.9292673837e+01  0.0000000000e+00 0. 9.
#pdf   21   21  5.358873e-02  1.829229e-02  2.033029e+02  1.759536e+00  4.981050e+00
</event>
<event>
    12  9999  1.000000e+00  1.751443e+02  7.875779e-03  1.074662e-01
       21    -1     0     0   101   102  0.0000000000e+00  0.0000000000e+00  1.7349134420e+02  1.7349134420e+02  0.0000000000e+00 0. 9.
       21    -1     0     0   102   103  0.0000000000e+00  0.0000000000e+00 -2.0422188503e+02  2.0422188503e+02  0.0000000000e+00 0. 9.
        6     2     1     2   101     0 -4.0943897461e+01 -1.8339439427e-01  5.3801367626e+01  1.8347426839e+02  1.7056313678e+02  1.428517e-13 9.
       -6     2     1     2     0   103  4.0943897461e+01  1.8339439427e-01 -8.4531908457e+01  1.9423896083e+02  1.7001968705e+02  8.653498e-14 9.
       24     2     3     0     0     0  3.9241101592e+01  1.3167302851e+01  7.2920373228e+00  8.9697762827e+01  7.9241863489e+01  8.863130e-14 9.
        5     1     3     0   101     0 -8.0184999053e+01 -1.3350697245e+01  4.6509330303e+01  9.3776505561e+01  4.8000000000e+00 0. 9.
      -24     2     4     0     0     0  3.0839227208e+01  6.1700636655e+01 -2.7997232166e+01  1.0994373511e+02  8.0905830340e+01  1.588191e-13 9.
       -5     1     4     0     0   103  1.0104670252e+01 -6.1517242261e+01 -5.6534676290e+01  8.4295225722e+01  4.8000000000e+00 0. 9.
      -13     1     5     0     0     0  2.8769491442e+00 -2.1705435038e+00  3.8941678629e+01  3.9108229236e+01  1.0566000000e-01  2.398817e+05 9.
       14     1     5     0     0     0  3.6364152448e+01  1.5337846354e+01 -3.1649641307e+01  5.0589533591e+01  0.0000000000e+00 0. 9.
        1     1     7     0   104     0  4.0318883137e+01  4.5455010640e+01 -5.1632519087e+01  7.9735790313e+01  3.3000000000e-01 0. 9.
       -2     1     7     0     0   104 -9.4796559282e+00  1.6245626016e+01  2.3635286921e+01  3.0207944799e+01  3.3000000000e-01 0. 9.
#pdf   21   21  2.669098e-02  3.141875e-02  1.748803e+02  3.576506e+00  3.069962e+00
</event>
<event>
    12  9999  1.000000e+00  1.744177e+02  7.875405e-03  1.075214e-01
        1    -1     0     0   101     0  0.0000000000e+00  0.0000000000e+00  1.2648619640e+02  1.2648619640e+02  0.0000000000e+00 0. 9.
       -1    -1     0     0     0   102  0.0000000000e+00  0.0000000000e+00 -2.6140987120e+02  2.6140987120e+02  0.0000000000e+00 0. 9.
        6     2     1     2   101     0 -3.5439336926e+01  7.4813718513e+00 -1.2253791384e+02  2.1372456908e+02  1.7132055795e+02  3.780364e-13 9.
       -6     2     1     2     0   102  3.5439336926e+01 -7.4813718513e+00 -1.2385760968e+01  1.7417149852e+02  1.6991287854e+02  5.718695e-15 9.
       24     2     3     0     0     0 -4.8228202499e+01 -4.8676543732e+01 -1.1517709061e+02  1.5546233188e+02  7.8787111931e+01  1.409280e-14 9.
        5     1     3     0   101     0  1.2788865572e+01  5.6157915583e+01 -7.3608232296e+00  5.8262237203e+01  4.8000000000e+00 0. 9.
      -24     2     4     0     0     0  8.0335921189e+01 -9.3938474257e+00  2.3224627068e+01  1.1663454885e+02  8.0759705792e+01  1.485569e-13 9.
       -5     1     4     0     0   102 -4.4896584262e+01  1.9124755744e+00 -3.5610388036e+01  5.7536949670e+01  4.8000000000e+00 0. 9.
      -15     1     5     0     0     0 -1.1132784759e+01 -4.5342409955e+01 -1.5778939286e+01  4.9315363238e+01  1.7768200000e+00  2.873280e-02 9.
       16     1     5     0     0     0 -3.7095417740e+01 -3.3341337765e+00 -9.9398151321e+01  1.0614696864e+02  0.0000000000e+00 0. 9.
       11     1     7     0     0     0 -2.5018618380e+00  2.1921873502e+01 -6.8576759486e+00  2.3105314761e+01  5.1100000000e-04 0. 9.
      -12     1     7     0     0     0  8.2837783027e+01 -3.1315720928e+01  3.0082303017e+01  9.3529234086e+01  0.0000000000e+00 0. 9.
#pdf    1   -1  1.945941e-02  4.021690e-02  1.737305e+02  5.521749e-01  2.263103e-01
</event>
<event>
    12  9999  1.000000e+00  2.176658e+02  7.895376e-03  1.046602e-01
        2    -1     0     0   101     0  0.0000000000e+00  0.0000000000e+00  3.8567287666e+02  3.8567287666e+02  0.0000000000e+00 0. 9.
       -2    -1     0     0     0   102  0.0000000000e+00  0.0000000000e+00 -1.4553512150e+02  1.4553512150e+02  0.0000000000e+00 0. 9.
        6     2     1     2   101     0 -6.6224738926e-01  1.3925044047e+02  1.6222341068e+01  2.2040825585e+02  1.7007501625e+02  1.798363e-15 9.
       -6     2     1     2     0   102  6.6224738926e-01 -1.3925044047e+02  2.2391541409e+02  3.1079974231e+02  1.6452125520e+02  8.351924e-15 9.
       24     2     3     0     0     0  2.8070704248e-01  1.5822572284e+02 -2.0972656024e+01  1.7836710562e+02  7.9621064443e+01  5.560390e-14 9.
        5     1     3     0   101     0 -9.4295443174e-01 -1.8975282365e+01  3.7194997092e+01  4.2041150229e+01  4.8000000000e+00 0. 9.
      -24     2     4     0     0     0 -5.0941930657e-01 -5.6281346985e+01  2.0358387514e+02  2.2523307384e+02  7.8202901550e+01  3.398952e-14 9.
       -5     1     4     0     0   102  1.1716666958e+00 -8.2969093487e+01  2.0331538955e+01  8.5566668471e+01  4.8000000000e+00 0. 9.
       -1     1     5     0     0   103 -3.4616487136e+01  1.2197548337e+02 -1.6158370417e+01  1.2781831465e+02  3.3000000000e-01 0. 9.
        2     1     5     0   103     0  3.4897194178e+01  3.6250239469e+01 -4.8142856073e+00  5.0548790975e+01  3.3000000000e-01 0. 9.
        3     1     7     0   104     0 -8.2379075925e+00  1.8969970478e+01  4.3176710679e+01  4.7876938566e+01  5.0000000000e-01 0. 9.
       -4     1     7     0     0   104  7.7284882859e+00 -7.5251317463e+01  1.6040716446e+02  1.7735613528e+02  1.5000000000e+00 0. 9.
#pdf    2   -2  5.933429e-02  2.239002e-02  2.155420e+02  6.139401e-01  3.092608e-01
</event>
<event>
    12  9999  1.000000e+00  2.004436e+02  7.887932e-03  1.057067e-01
       21    -1     0     0   101   102  0.0000000000e+00  0.0000000000e+00  2.7519428642e+01  2.7519428642e+01  0.0000000000e+00 0. 9.
       21    -1     0     0   103   101  0.0000000000e+00  0.0000000000e+00 -2.3789025606e+03  2.3789025606e+03  0.0000000000e+00 0. 9.
        6     2     1     2   103     0 -8.0797025502e+01  6.7281359139e+01 -1.9251151939e+03  1.9355686831e+03  1.7118024516e+02  3.728161e-13 9.
       -6     2     1     2     0   102  8.0797025502e+01 -6.7281359139e+01 -4.2626793799e+02  4.7085330614e+02  1.7012801160e+02  2.780890e-13 9.
       24     2     3     0     0     0 -7.1843847099e+01  1.1367370582e+02 -1.5687263031e+03  1.5760294074e+03  6.9880105913e+01  1.108978e-13 9.
        5     1     3     0   103     0 -8.9531784025e+00 -4.6392346677e+01 -3.5638889078e+02  3.5953927561e+02  4.8000000000e+00 0. 9.
      -24     2     4     0     0     0  1.1207603350e+02 -5.8442453848e+01 -2.4567260629e+02  2.8729346189e+02  7.8777827279e+01  7.247087e-14 9.
       -5     1     4     0     0   102 -3.1279007995e+01 -8.8389052915e+00 -1.8059533170e+02  1.8355984425e+02  4.8000000000e+00 0. 9.
      -13     1     5     0     0     0  3.7420005410e-01  6.2297787787e+01 -5.7852979683e+02  5.8187446359e+02  1.0566000000e-01  6.828606e+05 9.
       14     1     5     0     0     0 -7.2218047153e+01  5.1375918030e+01 -9.9019650631e+02  9.9415494385e+02  0.0000000000e+00 0. 9.
        3     1     7     0   104     0  5.1899473842e+00 -3.5883738726e+01 -3.7318832650e+01  5.2033869058e+01  5.0000000000e-01 0. 9.
       -4     1     7     0     0   104  1.0688608611e+02 -2.2558715122e+01 -2.0835377364e+02  2.3525959283e+02  1.5000000000e+00 0. 9.
#pdf   21   21  4.233758e-03  3.659850e-01  1.999962e+02  1.510706e+01  5.084425e-02
</event>
<event>
    12  9999  1.000000e+00  1.864777e+02  7.881422e-03  1.066412e-01
       21    -1     0     0   101   102  0.0000000000e+00  0.0000000000e+00  1.9880811566e+02  1.9880811566e+02  0.0000000000e+00 0. 9.
       21    -1     0     0   103   101  0.0000000000e+00  0.0000000000e+00 -1.8004946055e+02  1.8004946055e+02  0.0000000000e+00 0. 9.
        6     2     1     2   103     0 -4.5476544117e+00  7.6011546662e+01 -2.2615866080e+01  1.8789661209e+02  1.7027983747e+02  4.352056e-13 9.
       -6     2     1     2     0   102  4.5476544117e+00 -7.6011546662e+01  4.1374521187e+01  1.9096096412e+02  1.7016404563e+02  7.992608e-14 9.
       24     2     3     0     0     0  4.3785414585e+01  8.0215905294e+01 -5.0770277176e+01  1.3159853882e+02  7.9929971739e+01  1.401122e-13 9.
        5     1     3     0   103     0 -4.8333068997e+01 -4.2043586324e+00  2.8154411096e+01  5.6298073273e+01  4.8000000000e+00 0. 9.
      -24     2     4     0     0     0  5.6810639096e+01 -4.2616825783e+01  6.3012920196e+01  1.2509832476e+02  8.1457474752e+01  2.055247e-14 9.
       -5     1     4     0     0   102 -5.2262984684e+01 -3.3394720879e+01 -2.1638399009e+01  6.5862639352e+01  4.8000000000e+00 0. 9.
       -3     1     5     0     0   104  1.8829951219e+01 -4.9635224854e+00 -3.6931384483e+01  4.1753811541e+01  5.0000000000e-01 0. 9.
        4     1     5     0   104     0  2.4955463366e+01  8.5179427779e+01 -1.3838892693e+01  8.9844727278e+01  1.5000000000e+00 0. 9.
        1     1     7     0   105     0 -6.2473789920e+00 -4.4374411221e+01  2.2705313846e+01  5.0237021133e+01  3.3000000000e-01 0. 9.
       -2     1     7     0     0   105  6.3058018088e+01  1.7575854380e+00  4.0307606350e+01  7.4861303632e+01  3.3000000000e-01 0. 9.
#pdf   21   21  3.058586e-02  2.769992e-02  1.864249e+02  3.142479e+00  3.449575e+00
</event>
<event>
    12  9999  1.000000e+00  2.206743e+02  7.896617e-03  1.044880e-01
       21    -1     0     0   101   102  0.0000000000e+00  0.0000000000e+00  1.6560103001e+02  1.6560103001e+02  0.0000000000e+00 0. 9.
       21    -1     0     0   103   101  0.0000000000e+00  0.0000000000e+00 -4.0228557597e+02  4.0228557597e+02  0.0000000000e+00 0. 9.
        6     2     1     2   103     0 -1.3728372247e+02  2.2140329829e+01 -2.6608148919e+02  3.4645760413e+02  1.7290603781e+02  8.517012e-14 9.
       -6     2     1     2     0   102  1.3728372247e+02 -2.2140329829e+01  2.9396943234e+01  2.2142900185e+02  1.6979283827e+02  3.491163e-14 9.
       24     2     3     0     0     0 -5.5777397899e+01  2.5065612634e+01 -2.3792769709e+02  2.6004282395e+02  8.5283516517e+01  3.826710e-14 9.
        5     1     3     0   103     0 -8.1506324574e+01 -2.9252828057e+00 -2.8153792098e+01  8.6414780186e+01  4.8000000000e+00 0. 9.
      -24     2     4     0     0     0  1.4639978624e+02  6.1843873744e+00  6.0353947433e+01  1.7822288733e+02  8.1545413958e+01  3.938539e-14 9.
       -5     1     4     0     0   102 -9.1160637673e+00 -2.8324717203e+01 -3.0957004199e+01  4.3206114523e+01  4.8000000000e+00 0. 9.
       -1     1     5     0     0   104  2.1298523212e+01  1.6239344771e+01 -7.3598331170e+01  7.8320920963e+01  3.3000000000e-01 0. 9.
        2     1     5     0   104     0 -7.7075921111e+01  8.8262678639e+00 -1.6432936592e+02  1.8172190298e+02  3.3000000000e-01 0. 9.
       15     1     7     0     0     0  1.3368201180e+01  2.9660822383e+01  1.2894392794e+01  3.5041341899e+01  1.7768200000e+00  5.958242e-02 9.
      -16     1     7     0     0     0  1.3303158506e+02 -2.3476435008e+01  4.7459554639e+01  1.4318154543e+02  0.0000000000e+00 0. 9.
#pdf   21   21  2.547708e-02  6.189009e-02  2.194690e+02  3.707124e+00  1.485434e+00
</event>
<event>
    12  9999  1.000000e+00  2.161436e+02  7.894742e-03  1.047485e-01
        1    -1     0     0   101     0  0.0000000000e+00  0.0000000000e+00  1.2590611682e+03  1.2590611682e+03  0.0000000000e+00 0. 9.
       -1    -1     0     0     0   102  0.0000000000e+00  0.0000000000e+00 -3.7612975565e+01  3.7612975565e+01  0.0000000000e+00 0. 9.
        6     2     1     2   101     0 -1.4531977973e+02 -3.6681165690e+01  6.4708905477e+02  6.7886912804e+02  1.4027010339e+02  2.449674e-13 9.
       -6     2     1     2     0   102  1.4531977973e+02  3.6681165690e+01  5.7435913784e+02  6.1780501570e+02  1.7126374955e+02  4.790877e-14 9.
       24     2     3     0     0     0 -8.2530256569e+01  2.4934678223e+01  3.6606692153e+02  3.8436018792e+02  7.9339659643e+01  4.833941e-14 9.
        5     1     3     0   101     0 -6.2789523157e+01 -6.1615843912e+01  2.8102213324e+02  2.9450894012e+02  4.8000000000e+00 0. 9.
      -24     2     4     0     0     0  1.3987573594e+02  3.4216276336e+01  2.8997318082e+02  3.3331577892e+02  7.9240064447e+01  1.256782e-13 9.
       -5     1     4     0     0   102  5.4440437867e+00  2.4648893536e+00  2.8438595702e+02  2.8448923678e+02  4.8000000000e+00 0. 9.
      -15     1     5     0     0     0 -6.9631575538e+00 -9.2772545480e+00  1.8301014108e+02  1.8338599140e+02  1.7768200000e+00  8.520535e-04 9.
       16     1     5     0     0     0 -7.5567099015e+01  3.4211932771e+01  1.8305678045e+02  2.0097419652e+02  0.0000000000e+00 0. 9.
        1     1     7     0   103     0  8.7335468263e+01 -1.6258235563e+01  1.2908840810e+02  1.5670271295e+02  3.3000000000e-01 0. 9.
       -2     1     7     0     0   103  5.2540267676e+01  5.0474511900e+01  1.6088477272e+02  1.7661306597e+02  3.3000000000e-01 0. 9.
#pdf    1   -1  1.937017e-01  5.786612e-03  2.052780e+02  2.270112e-01  7.268193e-01
</event>
<event>
    12  9999  1.000000e+00  2.254250e+02  7.898543e-03  1.042219e-01
       21    -1     0     0   101   102  0.0000000000e+00  0.0000000000e+00  6.3549696743e+02  6.3549696743e+02  0.0000000000e+00 0. 9.
       21    -1     0     0   102   103  0.0000000000e+00  0.0000000000e+00 -8.7664175998e+01  8.7664175998e+01  0.0000000000e+00 0. 9.
        6     2     1     2   101     0 -3.1298746338e+01 -1.4410882552e+02  3.8112025241e+02  4.4281342769e+02  1.7054066915e+02  1.137799e-13 9.
       -6     2     1     2     0   103  3.1298746338e+01  1.4410882552e+02  1.6671253903e+02  2.8034771574e+02  1.7045470348e+02  3.521453e-13 9.
       24     2     3     0     0     0 -2.8816010498e+01 -1.7285364706e+02  3.0206221000e+02  3.5851845268e+02  8.1148976808e+01  1.337162e-13 9.
        5     1     3     0   101     0 -2.4827358395e+00  2.8744821545e+01  7.9058042402e+01  8.4294975006e+01  4.8000000000e+00 0. 9.
      -24     2     4     0     0     0  6.4635320257e+01  4.0060468259e+01  5.9918137962e+01  1.2749003060e+02  8.2951545515e+01  1.031296e-14 9.
       -5     1     4     0     0   103 -3.3336573919e+01  1.0404835726e+02  1.0679440107e+02  1.5285768515e+02  4.8000000000e+00 0. 9.
      -13     1     5     0     0     0 -2.9123993875e+01 -1.3468132863e+02  2.8528690049e+02  3.1682154923e+02  1.0566000000e-01  7.168462e+04 9.
       14     1     5     0     0     0  3.0798337713e-01 -3.8172318435e+01  1.6775309517e+01  4.1696903456e+01  0.0000000000e+00 0. 9.
       11     1     7     0     0     0  3.5925397222e+01  4.2418876658e+01 -5.6488706897e+00  5.5874010083e+01  5.1100000000e-04 0. 9.
      -12     1     7     0     0     0  2.8709923035e+01 -2.3584083992e+00  6.5567008652e+01  7.1616020515e+01  0.0000000000e+00 0. 9.
#pdf   21   21  9.776876e-02  1.348680e-02  2.253925e+02  8.328792e-01  6.412640e+00
</event>
<event>
    12  9999  1.000000e+00  2.160878e+02  7.894718e-03  1.047518e-01
       21    -1     0     0   101   102  0.0000000000e+00  0.0000000000e+00  1.1751188433e+02  1.1751188433e+02  0.0000000000e+00 0. 9.
       21    -1     0     0   103   101  0.0000000000e+00  0.0000000000e+00 -3.9845116246e+02  3.9845116246e+02  0.0000000000e+00 0. 9.
        6     2     1     2   103     0 -8.1964544862e+01 -1.0033101682e+02 -1.2714634270e+02  2.5098785351e+02  1.7333265878e+02  8.198229e-14 9.
       -6     2     1     2     0   102  8.1964544862e+01  1.0033101682e+02 -1.5379293544e+02  2.6497519327e+02  1.7255458994e+02  3.385323e-13 9.
       24     2     3     0     0     0 -5.4417779048e+01 -8.3458840884e+01 -1.6010790707e+02  2.0458742945e+02  7.9339785620e+01  8.566994e-14 9.
        5     1     3     0   103     0 -2.7546765813e+01 -1.6872175935e+01  3.2961564374e+01  4.6400424066e+01  4.8000000000e+00 0. 9.
      -24     2     4     0     0     0  9.3778558142e+01  1.6440224340e+01 -5.8304334059e+01  1.3723190004e+02  7.9802882628e+01  1.423087e-14 9.
       -5     1     4     0     0   102 -1.1814013280e+01  8.3890792478e+01 -9.5488601378e+01  1.2774329323e+02  4.8000000000e+00 0. 9.
      -13     1     5     0     0     0 -8.7687388512e+00 -8.1175113179e+01 -1.0387294247e+02  1.3212073691e+02  1.0566000000e-01  8.661013e+05 9.
       14     1     5     0     0     0 -4.5649040197e+01 -2.2837277050e+00 -5.6234964602e+01  7.2466692535e+01  0.0000000000e+00 0. 9.
       13     1     7     0     0     0  9.9015406477e+01  3.3945693904e+01 -5.6292272677e+01  1.1884945091e+02  1.0566000000e-01  5.734879e+05 9.
      -14     1     7     0     0     0 -5.2368483352e+00 -1.7505469563e+01 -2.0120613815e+00  1.8382449133e+01  0.0000000000e+00 0. 9.
#pdf   21   21  1.807875e-02  6.130018e-02  2.157767e+02  5.026322e+00  1.504026e+00
</event>
<event>
    12  9999  1.000000e+00  1.778177e+02  7.877141e-03  1.072657e-01
       21    -1     0     0   101   102  0.0000000000e+00  0.0000000000e+00  2.1688992889e+02  2.1688992889e+02  0.0000000000e+00 0. 9.
       21    -1     0     0   102   103  0.0000000000e+00  0.0000000000e+00 -1.4599278233e+02  1.4599278233e+02  0.0000000000e+00 0. 9.
        6     2     1     2   101     0  1.0150218225e+01 -5.1592012371e+01  4.1948825669e+01  1.8151654913e+02  1.6859356738e+02  7.242176e-14 9.
       -6     2     1     2     0   103 -1.0150218225e+01  5.1592012371e+01  2.8948320892e+01  1.8136616209e+02  1.7114589331e+02  3.278403e-13 9.
       24     2     3     0     0     0  4.6519391166e+01 -6.6173667135e+01  6.5334699379e+01  1.3563321353e+02  8.7090399548e+01  3.149093e-14 9.
        5     1     3     0   101     0 -3.6369172941e+01  1.4581654764e+01 -2.3385873711e+01  4.5883335594e+01  4.8000000000e+00 0. 9.
      -24     2     4     0     0     0  9.3032585457e+00  9.3376775458e+01 -5.6960645257e+00  1.2350704331e+02  8.0098512986e+01  2.650308e-13 9.
       -5     1     4     0     0   103 -1.9453476771e+01 -4.1784763087e+01  3.4644385418e+01  5.7859118777e+01  4.8000000000e+00 0. 9.
       -3     1     5     0     0   104  1.4356396096e+01 -8.1155687472e+01  3.7677804071e+01  9.0621292407e+01  5.0000000000e-01 0. 9.
        4     1     5     0   104     0  3.2162995071e+01  1.4982020337e+01  2.7656895308e+01  4.5011921125e+01  1.5000000000e+00 0. 9.
        3     1     7     0   105     0  3.5129008348e+00  7.0815191067e+01  3.3085352590e+01  7.8243353162e+01  5.0000000000e-01 0. 9.
       -4     1     7     0     0   105  5.7903577109e+00  2.2561584391e+01 -3.8781417115e+01  4.5263690151e+01  1.5000000000e+00 0. 9.
#pdf   21   21  3.336768e-02  2.246043e-02  1.766028e+02  2.896258e+00  4.177148e+00
</event>
<event>
    12  9999  1.000000e+00  2.151998e+02  7.894346e-03  1.048036e-01
       21    -1     0     0   101   102  0.0000000000e+00  0.0000000000e+00  4.0825252941e+01  4.0825252941e+01  0.0000000000e+00 0. 9.
       21    -1     0     0   103   101  0.0000000000e+00  0.0000000000e+00 -1.9785191178e+03  1.9785191178e+03  0.0000000000e+00 0. 9.
        6     2     1     2   103     0  2.8703845514e+01  1.2597858547e+02 -1.6305883021e+03  1.6448418888e+03  1.7318231339e+02  3.021394e-13 9.
       -6     2     1     2     0   102 -2.8703845514e+01 -1.2597858547e+02 -3.0710556280e+02  3.7450248192e+02  1.7100809196e+02  3.146150e-13 9.
       24     2     3     0     0     0  2.1154028282e+01  3.9850925715e+01 -1.2953456453e+03  1.2985968132e+03  7.9985955878e+01  3.542667e-14 9.
        5     1     3     0   103     0  7.5498172323e+00  8.6127659759e+01 -3.3524265676e+02  3.4624507567e+02  4.8000000000e+00 0. 9.
      -24     2     4     0     0     0  8.3503560645e+00 -8.2055149918e+01 -2.9391295331e+02  3.1534703423e+02  7.9095839351e+01  4.280081e-14 9.
       -5     1     4     0     0   102 -3.7054201579e+01 -4.3923435556e+01 -1.3192609492e+01  5.9155447686e+01  4.8000000000e+00 0. 9.
      -13     1     5     0     0     0  2.6596291605e+01 -5.7027116483e+00 -1.5786055653e+02  1.6018692243e+02  1.0566000000e-01  4.821025e+05 9.
       14     1     5     0     0     0 -5.4422633233e+00  4.5553637363e+01 -1.1374850888e+03  1.1384098907e+03  0.0000000000e+00 0. 9.
        1     1     7     0   104     0 -1.6941158112e+01 -9.3199396039e+00 -1.5763140726e+02  1.5881320338e+02  3.3000000000e-01 0. 9.
       -2     1     7     0     0   104  2.5291514176e+01 -7.2735210315e+01 -1.3628154605e+02  1.5653383085e+02  3.3000000000e-01 0. 9.
#pdf   21   21  6.280808e-03  3.043876e-01  2.143322e+02  1.148545e+01  9.540813e-02
</event>
<event>
    12  9999  1.000000e+00  2.333042e+02  7.901652e-03  1.037955e-01
        2    -1     0     0   101     0  0.0000000000e+00  0.0000000000e+00  4.0894254121e+02  4.0894254121e+02  0.0000000000e+00 0. 9.
       -2    -1     0     0     0   102  0.0000000000e+00  0.0000000000e+00 -1.7790088775e+02  1.7790088775e+02  0.0000000000e+00 0. 9.
        6     2     1     2   101     0  1.4551386868e+02 -6.2463564788e+01 -3.1734973814e+01  2.3542271027e+02  1.7129145059e+02  3.909685e-14 9.
       -6     2     1     2     0   102 -1.4551386868e+02  6.2463564788e+01  2.6277662728e+02  3.5142071869e+02  1.7137381008e+02  1.998638e-13 9.
       24     2     3     0     0     0  1.1186769995e+02 -1.1119650873e+02 -1.0309941419e+01  1.7226389055e+02  6.8479977018e+01  2.851283e-14 9.
        5     1     3     0   101     0  3.3646168733e+01  4.8732943938e+01 -2.1425032395e+01  6.3158819719e+01  4.8000000000e+00 0. 9.
      -24     2     4     0     0     0 -2.7429327756e+01  4.0902926846e+00  1.7020323573e+02  1.9034846620e+02  8.0587211241e+01  1.542629e-13 9.
       -5     1     4     0     0   102 -1.1808454092e+02  5.8373272103e+01  9.2573391543e+01  1.6107225249e+02  4.8000000000e+00 0. 9.
      -13     1     5     0     0     0  3.8921220993e+01 -6.7334379664e+00  1.5200751612e+01  4.2323452648e+01  1.0566000000e-01  1.042372e+06 9.
       14     1     5     0     0     0  7.2946478953e+01 -1.0446307076e+02 -2.5510693031e+01  1.2994043791e+02  0.0000000000e+00 0. 9.
       11     1     7     0     0     0 -5.1505887188e+01  7.7862395174e+00  7.0166982182e+01  8.7389286126e+01  5.1100000000e-04 0. 9.
      -12     1     7     0     0     0  2.4076559432e+01 -3.6959468328e+00  1.0003625355e+02  1.0295918008e+02  0.0000000000e+00 0. 9.
#pdf    2   -2  6.291424e-02  2.736937e-02  2.332740e+02  6.104802e-01  2.657775e-01
</event>
<event>
    12  9999  1.000000e+00  2.013421e+02  7.888336e-03  1.056494e-01
       21    -1     0     0   101   102  0.0000000000e+00  0.0000000000e+00  4.5930358948e+01  4.5930358948e+01  0.0000000000e+00 0. 9.
       21    -1     0     0   102   103  0.0000000000e+00  0.0000000000e+00 -9.1448805701e+02  9.1448805701e+02  0.0000000000e+00 0. 9.
        6     2     1     2   101     0  8.1216650258e+01 -6.8517601546e+01 -5.2403883308e+02  5.6140496034e+02  1.7107900199e+02  2.963894e-13 9.
       -6     2     1     2     0   103 -8.1216650258e+01  6.8517601546e+01 -3.4451886499e+02  3.9901345562e+02  1.7096105823e+02  3.167135e-15 9.
       24     2     3     0     0     0  6.8313975205e+01  1.9989716433e+01 -3.5750913393e+02  3.7231449243e+02  7.5755610041e+01  1.137664e-13 9.
        5     1     3     0   101     0  1.2902675053e+01 -8.8507317980e+01 -1.6652969914e+02  1.8909046791e+02  4.8000000000e+00 0. 9.
      -24     2     4     0     0     0 -7.0634096141e+01  8.2059843139e+01 -1.3627562589e+02  1.9000706962e+02  7.6214479592e+01  1.010007e-13 9.
       -5     1     4     0     0   103 -1.0582554117e+01 -1.3542241593e+01 -2.0824323910e+02  2.0900638600e+02  4.8000000000e+00 0. 9.
       -1     1     5     0     0   104  4.8240491577e+01 -2.4347699722e+01 -1.5924360944e+02  1.6816239638e+02  3.3000000000e-01 0. 9.
        2     1     5     0   104     0  2.0073483629e+01  4.4337416156e+01 -1.9826552450e+02  2.0415209605e+02  3.3000000000e-01 0. 9.
        1     1     7     0   105     0 -8.0992203172e+01  4.2983993177e+01 -8.8686817601e+01  1.2756496839e+02  3.3000000000e-01 0. 9.
       -2     1     7     0     0   105  1.0358107030e+01  3.9075849962e+01 -4.7588808286e+01  6.2442101227e+01  3.3000000000e-01 0. 9.
#pdf   21   21  7.066209e-03  1.406905e-01  2.012921e+02  1.052817e+01  4.942573e-01
</event>
<event>
    12  9999  1.000000e+00  1.862202e+02  7.881298e-03  1.066593e-01
       21    -1     0     0   101   102  0.0000000000e+00  0.0000000000e+00  2.0024008131e+03  2.0024008131e+03  0.0000000000e+00 0. 9.
       21    -1     0     0   103   101  0.0000000000e+00  0.0000000000e+00 -2.0625108283e+01  2.0625108283e+01  0.0000000000e+00 0. 9.
        6     2     1     2   103     0  5.3826344404e+01  4.7736079318e+01  5.8383604666e+02  6.1267738585e+02  1.7126891469e+02  3.078555e-13 9.
       -6     2     1     2     0   102 -5.3826344404e+01 -4.7736079318e+01  1.3979396581e+03  1.4103485355e+03  1.7225473927e+02  9.341017e-14 9.
       24     2     3     0     0     0  5.9933613317e+01  2.9308766781e+01  1.7450907185e+02  2.0286221180e+02  7.9048206823e+01  1.848570e-14 9.
        5     1     3     0   103     0 -6.1072689126e+00  1.8427312537e+01  4.0932697480e+02  4.0981517405e+02  4.8000000000e+00 0. 9.
      -24     2     4     0     0     0 -7.3817454920e+01 -1.8694443781e+01  1.3206623021e+03  1.3252727408e+03  8.0002639712e+01  3.736214e-14 9.
       -5     1     4     0     0   102  1.9991110515e+01 -2.9041635537e+01  7.7277356031e+01  8.5075794733e+01  4.8000000000e+00 0. 9.
       -3     1     5     0     0   104 -1.1345731360e+01 -1.0311389417e+01  6.2177393148e+01  6.4041616083e+01  5.0000000000e-01 0. 9.
        4     1     5     0   104     0  7.1279344677e+01  3.9620156198e+01  1.1233167870e+02  1.3882059572e+02  1.5000000000e+00 0. 9.
        3     1     7     0   105     0 -4.2658550679e+01 -5.0354348482e+01  7.9577147614e+02  7.9850347813e+02  5.0000000000e-01 0. 9.
       -4     1     7     0     0   105 -3.1158904241e+01  3.1659904701e+01  5.2489082596e+02  5.2676926263e+02  1.5000000000e+00 0. 9.
#pdf   21   21  3.080617e-01  3.173094e-03  1.857661e+02  9.537715e-02  1.825739e+01
</event>
<event>
    12  9999  1.000000e+00  1.707622e+02  7.873500e-03  1.078053e-01
       21    -1     0     0   101   102  0.0000000000e+00  0.0000000000e+00  9.6559383203e+01  9.6559383203e+01  0.0000000000e+00 0. 9.
       21    -1     0     0   103   101  0.0000000000e+00  0.0000000000e+00 -3.0557849693e+02  3.0557849693e+02  0.0000000000e+00 0. 9.
        6     2     1     2   103     0  7.6475156519e+00 -2.2603239695e+00 -1.2583472928e+02  2.1151595911e+02  1.6982646527e+02  1.105382e-13 9.
       -6     2     1     2     0   102 -7.6475156519e+00  2.2603239695e+00 -8.3184384452e+01  1.9062192103e+02  1.7132857730e+02  1.548590e-13 9.
       24     2     3     0     0     0 -4.5268715558e+00 -5.9627679617e+01 -3.8189531498e+01  1.0595105068e+02  7.8684382707e+01  4.740339e-14 9.
        5     1     3     0   103     0  1.2174387208e+01  5.7367355647e+01 -8.7645197781e+01  1.0556490843e+02  4.8000000000e+00 0. 9.
      -24     2     4     0     0     0 -6.9470895249e+01 -9.3559888974e+00 -6.4509562857e+01  1.2482786391e+02  8.0664565298e+01  4.691171e-14 9.
       -5     1     4     0     0   102  6.1823379597e+01  1.1616312867e+01 -1.8674821595e+01  6.5794057110e+01  4.8000000000e+00 0. 9.
      -15     1     5     0     0     0 -1.1629977353e+00 -2.2331650266e+01  2.4318207421e+01  3.3084550304e+01  1.7768200000e+00  1.193506e-01 9.
       16     1     5     0     0     0 -3.3638738205e+00 -3.7296029351e+01 -6.2507738919e+01  7.2866500377e+01  0.0000000000e+00 0. 9.
        1     1     7     0   104     0 -1.8661219924e+01 -3.4783089640e+01 -8.2676448415e-01  3.9482868354e+01  3.3000000000e-01 0. 9.
       -2     1     7     0     0   104 -5.0809675325e+01  2.5427100742e+01 -6.3682798372e+01  8.5344995561e+01  3.3000000000e-01 0. 9.
#pdf   21   21  1.485529e-02  4.701208e-02  1.700136e+02  5.932557e+00  2.050310e+00
</event>
<event>
    12  9999  1.000000e+00  2.190117e+02  7.895933e-03  1.045828e-01
       21    -1     0     0   101   102  0.0000000000e+00  0.0000000000e+00  4.9001395394e+01  4.9001395394e+01  0.0000000000e+00 0. 9.
       21    -1     0     0   102   103  0.0000000000e+00  0.0000000000e+00 -9.9833999092e+02  9.9833999092e+02  0.0000000000e+00 0. 9.
        6     2     1     2   101     0  1.3675102540e+02 -5.8932310807e+00 -4.0089032789e+02  4.5666613295e+02  1.7057352921e+02  3.263876e-14 9.
       -6     2     1     2     0   103 -1.3675102540e+02  5.8932310807e+00 -5.4844826764e+02  5.9067525336e+02  1.7136563116e+02  6.678511e-14 9.
       24     2     3     0     0     0  1.4701730402e+02 -3.9591038012e+01 -2.6587318982e+02  3.1704662772e+02  8.1538169656e+01  2.519290e-13 9.
        5     1     3     0   101     0 -1.0266278622e+01  3.3697806931e+01 -1.3501713807e+02  1.3961950523e+02  4.8000000000e+00 0. 9.
      -24     2     4     0     0     0 -1.2720482984e+02  5.4032796697e+00 -5.5622364491e+02  5.7745154761e+02  8.8630031677e+01  1.762509e-13 9.
       -5     1     4     0     0   103 -9.5461955557e+00  4.8995141101e-01  7.7753772760e+00  1.3223705750e+01  4.8000000000e+00 0. 9.
       -1     1     5     0     0   104 -2.5219281207e+00 -1.0808114531e+01 -5.9738004338e+01  6.0761118517e+01  3.3000000000e-01 0. 9.
        2     1     5     0   104     0  1.4953923214e+02 -2.8782923481e+01 -2.0613518549e+02  2.5628550920e+02  3.3000000000e-01 0. 9.
        1     1     7     0   105     0 -3.1461342173e+00  1.5405804315e+01 -1.9013278722e+02  1.9078213397e+02  3.3000000000e-01 0. 9.
       -2     1     7     0     0   105 -1.2405869562e+02 -1.0002524645e+01 -3.6609085769e+02  3.8666941364e+02  3.3000000000e-01 0. 9.
#pdf   21   21  7.538676e-03  1.535908e-01  2.187028e+02  1.005694e+01  4.235935e-01
</event>
<event>
    12  9999  1.000000e+00  2.382597e+02  7.903556e-03  1.035364e-01
       21    -1     0     0   101   102  0.0000000000e+00  0.0000000000e+00  8.5917031633e+01  8.5917031633e+01  0.0000000000e+00 0. 9.
       21    -1     0     0   102   103  0.0000000000e+00  0.0000000000e+00 -7.6624220575e+02  7.6624220575e+02  0.0000000000e+00 0. 9.
        6     2     1     2   101     0  3.6857505302e+01 -7.7358156995e+01 -2.8016945392e+02  4.0894489237e+02  2.8530377132e+02  1.112539e-13 9.
       -6     2     1     2     0   103 -3.6857505302e+01  7.7358156995e+01 -4.0015572019e+02  4.4321434501e+02  1.7021044349e+02  2.265548e-13 9.
       24     2     3     0     0     0 -9.5940344520e+01  2.7799708281e+01 -1.1464241936e+02  1.7205739857e+02  8.0520125428e+01  5.206985e-14 9.
        5     1     3     0   101     0  1.3279784982e+02 -1.0515786528e+02 -1.6552703456e+02  2.3688749380e+02  4.8000000000e+00 0. 9.
      -24     2     4     0     0     0 -7.5305102552e+01  2.4657077028e+01 -3.2311190497e+02  3.4214797559e+02  7.9906846703e+01  2.247093e-13 9.
       -5     1     4     0     0   103  3.8447597249e+01  5.2701079966e+01 -7.7043815217e+01  1.0106636942e+02  4.8000000000e+00 0. 9.
       -3     1     5     0     0   104 -4.9470585367e+01 -2.5349106963e+01 -6.6096373268e+01  8.6364903749e+01  5.0000000000e-01 0. 9.
        4     1     5     0   104     0 -4.6469759152e+01  5.3148815244e+01 -4.8546046092e+01  8.5692494821e+01  1.5000000000e+00 0. 9.
        3     1     7     0   105     0 -7.4402193352e+01  4.7647677791e+01 -2.3471527879e+02  2.5079373930e+02  5.0000000000e-01 0. 9.
       -4     1     7     0     0   105 -9.0290920006e-01 -2.2990600762e+01 -8.8396626182e+01  9.1354236294e+01  1.5000000000e+00 0. 9.
#pdf   21   21  1.321800e-02  1.178834e-01  1.905633e+02  6.520663e+00  6.513999e-01
</event>
<event>
    12  9999  1.000000e+00  1.795260e+02  7.878002e-03  1.071395e-01
       21    -1     0     0   101   102  0.0000000000e+00  0.0000000000e+00  9.5744885761e+01  9.5744885761e+01  0.0000000000e+00 0. 9.
       21    -1     0     0   102   103  0.0000000000e+00  0.0000000000e+00 -4.1448472235e+02  4.1448472235e+02  0.0000000000e+00 0. 9.
        6     2     1     2   101     0  2.9460026553e+01 -4.6869879973e+01 -5.0405611055e+01  1.8857548043e+02  1.7307601619e+02  2.027018e-13 9.
       -6     2     1     2     0   103 -2.9460026553e+01  4.6869879973e+01 -2.6833422553e+02  3.2165412768e+02  1.6850353839e+02  2.754550e-13 9.
       24     2     3     0     0     0 -3.4675836005e+01  1.6413675647e+01 -4.0333996091e+01  9.7786193030e+01  8.0395808073e+01  1.175033e-14 9.
        5     1     3     0   101     0  6.4135862558e+01 -6.3283555620e+01 -1.0071614964e+01  9.0789287396e+01  4.8000000000e+00 0. 9.
      -24     2     4     0     0     0 -7.6940156441e+01  5.3664743622e+01 -2.2680847786e+02  2.5803054223e+02  7.9611448382e+01  6.460887e-15 9.
       -5     1     4     0     0   103  4.7480129888e+01 -6.7948636487e+00 -4.1525747673e+01  6.3623585454e+01  4.8000000000e+00 0. 9.
      -13     1     5     0     0     0 -2.3906684627e+01  4.5720497910e+01 -4.1987556653e+01  6.6519617984e+01  1.0566000000e-01  1.008825e+06 9.
       14     1     5     0     0     0 -1.0769151378e+01 -2.9306822263e+01  1.6535605623e+00  3.1266575046e+01  0.0000000000e+00 0. 9.
       13     1     7     0     0     0 -1.0599240270e+01  5.4209555280e+01 -1.2299622990e+02  1.3482990585e+02  1.0566000000e-01  4.015801e+05 9.
      -14     1     7     0     0     0 -6.6340916170e+01 -5.4481165787e-01 -1.0381224796e+02  1.2320063638e+02  0.0000000000e+00 0. 9.
#pdf   21   21  1.472998e-02  6.376688e-02  1.773644e+02  5.973740e+00  1.457804e+00
</event>
<event>
    12  9999  1.000000e+00  1.943289e+02  7.885138e-03  1.061055e-01
       21    -1     0     0   101   102  0.0000000000e+00  0.0000000000e+00  2.3797189836e+02  2.3797189836e+02  0.0000000000e+00 0. 9.
       21    -1     0     0   103   101  0.0000000000e+00  0.0000000000e+00 -4.0221503556e+02  4.0221503556e+02  0.0000000000e+00 0. 9.
        6     2     1     2   103     0  3.6440803190e+01 -8.4691433527e+01 -3.3132930474e+02  3.8454339649e+02  1.7202890616e+02  7.003314e-15 9.
       -6     2     1     2     0   102 -3.6440803190e+01  8.4691433527e+01  1.6708616754e+02  2.5564353743e+02  1.7010367367e+02  2.802481e-13 9.
       24     2     3     0     0     0  7.3157904144e+01 -3.9344345256e+01 -1.2882711013e+02  1.7374803900e+02  8.1804036025e+01  9.522192e-14 9.
        5     1     3     0   103     0 -3.6717100954e+01 -4.5347088271e+01 -2.0250219461e+02  2.1079535749e+02  4.8000000000e+00 0. 9.
      -24     2     4     0     0     0  3.1962785867e+01  8.3213814214e+01  1.3116148602e+02  1.7821707492e+02  8.1313171269e+01  9.701166e-15 9.
       -5     1     4     0     0   102 -6.8403589056e+01  1.4776193127e+00  3.5924681525e+01  7.7426462513e+01  4.8000000000e+00 0. 9.
      -15     1     5     0     0     0  6.0160654366e+01 -8.8087692792e+00 -1.2663804835e+02  1.4048932746e+02  1.7768200000e+00  8.187101e-02 9.
       16     1     5     0     0     0  1.2997249777e+01 -3.0535575977e+01 -2.1890617783e+00  3.3258711543e+01  0.0000000000e+00 0. 9.
        3     1     7     0   104     0  5.5459280508e+00 -1.4707358651e+01  3.5337916675e+01  3.8679220149e+01  5.0000000000e-01 0. 9.
       -4     1     7     0     0   104  2.6416857816e+01  9.7921172865e+01  9.5823569344e+01  1.3953785477e+02  1.5000000000e+00 0. 9.
#pdf   21   21  3.661106e-02  6.187924e-02  1.934834e+02  2.633799e+00  1.499998e+00
</event>
<event>
    12  9999  1.000000e+00  3.198903e+02  7.930331e-03  1.000377e-01
       21    -1     0     0   101   102  0.0000000000e+00  0.0000000000e+00  2.7828752976e+02  2.7828752976e+02  0.0000000000e+00 0. 9.
       21    -1     0     0   102   103  0.0000000000e+00  0.0000000000e+00 -3.7833006650e+02  3.7833006650e+02  0.0000000000e+00 0. 9.
        6     2     1     2   101     0 -2.0447755738e+02 -1.6586257217e+02  5.5161870042e+00  3.1465414747e+02  1.7220725850e+02  4.479451e-14 9.
       -6     2     1     2     0   103  2.0447755738e+02  1.6586257217e+02 -1.0555872375e+02  3.4196344879e+02  1.9098400935e+02  3.304958e-13 9.
       24     2     3     0     0     0 -8.2111392850e+01 -5.8503399048e+01  6.0828962630e+01  1.4265992250e+02  8.0540438642e+01  1.951855e-13 9.
        5     1     3     0   101     0 -1.2236616453e+02 -1.0735917313e+02 -5.5312775626e+01  1.7199422497e+02  4.8000000000e+00 0. 9.
      -24     2     4     0     0     0  2.0801123824e+02  1.2465715702e+02 -3.2998378425e+01  2.5830690779e+02  8.2616485069e+01  4.636071e-15 9.
       -5     1     4     0     0   103 -3.5336808565e+00  4.1205415150e+01 -7.2560345323e+01  8.3656540996e+01  4.8000000000e+00 0. 9.
       -1     1     5     0     0   104  9.8689293828e+00 -2.6154185771e+01  4.1974715453e-01  2.7959296990e+01  3.3000000000e-01 0. 9.
        2     1     5     0   104     0 -9.1980322233e+01 -3.2349213278e+01  6.0409215476e+01  1.1470062551e+02  3.3000000000e-01 0. 9.
        3     1     7     0   105     0  2.4384653430e+01  5.3886599683e+01 -2.8964615602e+00  5.9220067865e+01  5.0000000000e-01 0. 9.
       -4     1     7     0     0   105  1.8362658481e+02  7.0770557342e+01 -3.0101916864e+01  1.9908683993e+02  1.5000000000e+00 0. 9.
#pdf   21   21  4.281347e-02  5.820463e-02  3.146058e+02  2.185133e+00  1.553621e+00
</event>
<event>
    12  9999  1.000000e+00  1.822652e+02  7.879365e-03  1.069404e-01
       21    -1     0     0   101   102  0.0000000000e+00  0.0000000000e+00  2.3201205620e+02  2.3201205620e+02  0.0000000000e+00 0. 9.
       21    -1     0     0   102   103  0.0000000000e+00  0.0000000000e+00 -2.0598421380e+02  2.0598421380e+02  0.0000000000e+00 0. 9.
        6     2     1     2   101     0 -5.3683254320e+01  3.2601415067e+01  1.3391380784e+02  2.2584578922e+02  1.7067122932e+02  3.681943e-14 9.
       -6     2     1     2     0   103  5.3683254320e+01 -3.2601415067e+01 -1.0788596544e+02  2.1215048078e+02  1.7153338129e+02  3.098218e-13 9.
       24     2     3     0     0     0 -2.8873118552e+00  7.1700018264e+01  4.9532660599e+01  1.1976965358e+02  8.2110025352e+01  8.566837e-14 9.
        5     1     3     0   101     0 -5.0795942465e+01 -3.9098603197e+01  8.4381147237e+01  1.0607613564e+02  4.8000000000e+00 0. 9.
      -24     2     4     0     0     0  4.7852881572e+01  4.3506263127e+01 -4.3022542129e+01  1.1186750311e+02  8.0502831720e+01  2.333370e-14 9.
       -5     1     4     0     0   103  5.8303727476e+00 -7.6107678194e+01 -6.4863423306e+01  1.0028297767e+02  4.8000000000e+00 0. 9.
       -3     1     5     0     0   104 -2.8693090825e+01  1.0044376761e+01  4.2906356630e+01  5.2586960408e+01  5.0000000000e-01 0. 9.
        4     1     5     0   104     0  2.5805778970e+01  6.1655641502e+01  6.6263039690e+00  6.7182693170e+01  1.5000000000e+00 0. 9.
        3     1     7     0   105     0  5.9933467593e+00  2.4044357077e+01 -5.8194304454e+01  6.3252497054e+01  5.0000000000e-01 0. 9.
       -4     1     7     0     0   105  4.1859534813e+01  1.9461906050e+01  1.5171762325e+01  4.8615006057e+01  1.5000000000e+00 0. 9.
#pdf   21   21  3.569416e-02  3.168988e-02  1.818610e+02  2.708304e+00  3.040566e+00
</event>
<event>
    12  9999  1.000000e+00  2.152089e+02  7.894350e-03  1.048031e-01
       21    -1     0     0   101   102  0.0000000000e+00  0.0000000000e+00  1.1558099106e+03  1.1558099106e+03  0.0000000000e+00 0. 9.
       21    -1     0     0   102   103  0.0000000000e+00  0.0000000000e+00 -6.3782263264e+01  6.3782263264e+01  0.0000000000e+00 0. 9.
        6     2     1     2   101     0  1.1200646489e+02 -6.5406113057e+01  9.1685538379e+02  9.4163775133e+02  1.7098085313e+02  4.802022e-13 9.
       -6     2     1     2     0   103 -1.1200646489e+02  6.5406113057e+01  1.7517226359e+02  2.7795442258e+02  1.7248168395e+02  8.895806e-14 9.
       24     2     3     0     0     0 -7.2935108376e+00 -2.4502368932e+01  2.8326205924e+02  2.9559662152e+02  8.0538233552e+01  1.747331e-14 9.
        5     1     3     0   101     0  1.1929997573e+02 -4.0903744125e+01  6.3359332455e+02  6.4604112981e+02  4.8000000000e+00 0. 9.
      -24     2     4     0     0     0  1.0004966252e+00 -1.3196967158e+01  6.3277622076e+01  1.0049324832e+02  7.6939421411e+01  6.214895e-14 9.
       -5     1     4     0     0   103 -1.1300696152e+02  7.8603080214e+01  1.1189464152e+02  1.7746117426e+02  4.8000000000e+00 0. 9.
       -1     1     5     0     0   104  5.6051233870e+00  9.2978551162e-01  2.5626052895e+02  2.5632372014e+02  3.3000000000e-01 0. 9.
        2     1     5     0   104     0 -1.2898634225e+01 -2.5432154444e+01  2.7001530293e+01  3.9272901378e+01  3.3000000000e-01 0. 9.
        3     1     7     0   105     0  8.2941426870e+00 -4.4803242107e+01  3.8330752680e+01  5.9545108172e+01  5.0000000000e-01 0. 9.
       -4     1     7     0     0   105 -7.2936460619e+00  3.1606274949e+01  2.4946869395e+01  4.0948140149e+01  1.5000000000e+00 0. 9.
#pdf   21   21  1.778169e-01  9.812656e-03  2.146110e+02  3.291777e-01  8.242470e+00
</event>
<event>
    12  9999  1.000000e+00  2.291736e+02  7.900035e-03  1.040168e-01
       21    -1     0     0   101   102  0.0000000000e+00  0.0000000000e+00  1.6995382294e+02  1.6995382294e+02  0.0000000000e+00 0. 9.
       21    -1     0     0   102   103  0.0000000000e+00  0.0000000000e+00 -5.5916976606e+02  5.5916976606e+02  0.0000000000e+00 0. 9.
        6     2     1     2   101     0  3.9711400365e+01  1.4597839334e+02  4.8929547430e+01  2.3495155017e+02  1.7297815953e+02  9.467918e-14 9.
       -6     2     1     2     0   103 -3.9711400365e+01 -1.4597839334e+02 -4.3814549054e+02  4.9417203883e+02  1.7131213161e+02  1.442948e-13 9.
       24     2     3     0     0     0  6.0279406973e+01 -1.4471004722e+01  1.7936174241e+01  7.0176911903e+01  2.7569471071e+01  3.542139e-14 9.
        5     1     3     0   101     0 -2.0568006608e+01  1.6044939806e+02  3.0993373189e+01  1.6477463826e+02  4.8000000000e+00 0. 9.
      -24     2     4     0     0     0  1.7390762744e+01 -1.4915929153e+02 -3.4678860221e+02  3.8628368825e+02  8.0011376104e+01  7.820333e-14 9.
       -5     1     4     0     0   103 -5.7102163109e+01  3.1808981901e+00 -9.1356888337e+01  1.0788835058e+02  4.8000000000e+00 0. 9.
       -3     1     5     0     0   104  5.5840272203e+01 -4.2373482798e+00  1.8295610170e+01  5.8915791361e+01  5.0000000000e-01 0. 9.
        4     1     5     0   104     0  4.4391347696e+00 -1.0233656442e+01 -3.5943592891e-01  1.1261120542e+01  1.5000000000e+00 0. 9.
        1     1     7     0   105     0  3.4777751196e+01 -2.0628341363e+01 -8.4714597012e+01  9.3870614637e+01  3.3000000000e-01 0. 9.
       -2     1     7     0     0   105 -1.7386988452e+01 -1.2853095016e+02 -2.6207400520e+02  2.9241307361e+02  3.3000000000e-01 0. 9.
#pdf   21   21  2.614674e-02  8.602612e-02  2.285488e+02  3.614565e+00  9.866426e-01
</event>
<event>
    12  9999  1.000000e+00  2.385561e+02  7.903668e-03  1.035211e-01
       21    -1     0     0   101   102  0.0000000000e+00  0.0000000000e+00  8.1701548358e+02  8.1701548358e+02  0.0000000000e+00 0. 9.
       21    -1     0     0   103   101  0.0000000000e+00  0.0000000000e+00 -8.8499700602e+01  8.8499700602e+01  0.0000000000e+00 0. 9.
        6     2     1     2   103     0  8.9521849280e+01 -1.3929556165e+02  1.5605453471e+02  2.8556691404e+02  1.7256311773e+02  1.020848e-13 9.
       -6     2     1     2     0   102 -8.9521849280e+01  1.3929556165e+02  5.7246124827e+02  6.1994827014e+02  1.7089927410e+02  2.654544e-14 9.
       24     2     3     0     0     0 -1.3530719610e+01 -6.3002110542e+01  3.6862657423e+01  1.1043762966e+02  8.1763489573e+01  1.898352e-13 9.
        5     1     3     0   103     0  1.0305256889e+02 -7.6293451104e+01  1.1919187729e+02  1.7512928438e+02  4.8000000000e+00 0. 9.
      -24     2     4     0     0     0 -1.1572020660e+02  1.4334130046e+02  4.3244536583e+02  4.7736422733e+02  8.3244918606e+01  3.609232e-14 9.
       -5     1     4     0     0   102  2.6198357319e+01 -4.0457388139e+00  1.4001588244e+02  1.4258404281e+02  4.8000000000e+00 0. 9.
       -1     1     5     0     0   104 -1.1605679916e+01 -3.6910364235e+01 -2.3065571894e+01  4.5046601437e+01  3.3000000000e-01 0. 9.
        2     1     5     0   104     0 -1.9250396935e+00 -2.6091746307e+01  5.9928229317e+01  6.5391028225e+01  3.3000000000e-01 0. 9.
        3     1     7     0   105     0 -2.0062604931e+01  6.4104084166e+01  2.3217067134e+02  2.4169259888e+02  5.0000000000e-01 0. 9.
       -4     1     7     0     0   105 -9.5657601668e+01  7.9237216294e+01  2.0027469449e+02  2.3567162845e+02  1.5000000000e+00 0. 9.
#pdf   21   21  1.256947e-01  1.361534e-02  2.379579e+02  5.763193e-01  6.361473e+00
</event>
<event>
    12  9999  1.000000e+00  3.730399e+02  7.944373e-03  9.830580e-02
       21    -1     0     0   101   102  0.0000000000e+00  0.0000000000e+00  5.6595329644e+02  5.6595329644e+02  0.0000000000e+00 0. 9.
       21    -1     0     0   103   101  0.0000000000e+00  0.0000000000e+00 -3.1593519389e+02  3.1593519389e+02  0.0000000000e+00 0. 9.
        6     2     1     2   103     0  3.9421892930e+01 -3.4224967206e+02 -7.8835947007e+01  3.9379494747e+02  1.7369637431e+02  7.304838e-14 9.
       -6     2     1     2     0   102 -3.9421892930e+01  3.4224967206e+02  3.2885404956e+02  4.8809354286e+02  1.0677732441e+02  5.365527e-13 9.
       24     2     3     0     0     0 -3.3637313396e+01 -2.5106327031e+02 -2.9948641333e+01  2.6704473584e+02  7.9067915558e+01  7.163798e-14 9.
        5     1     3     0   103     0  7.3059206326e+01 -9.1186401743e+01 -4.8887305674e+01  1.2675021163e+02  4.8000000000e+00 0. 9.
      -24     2     4     0     0     0  4.1365462096e+00  1.8306294024e+02  1.7801489589e+02  2.6445713374e+02  6.8695861024e+01  1.106462e-13 9.
       -5     1     4     0     0   102 -4.3558439140e+01  1.5918673182e+02  1.5083915367e+02  2.2363640913e+02  4.8000000000e+00 0. 9.
      -15     1     5     0     0     0 -1.1965647735e+01 -7.1556073210e+01  2.7071501610e+01  7.7456256220e+01  1.7768200000e+00  4.046609e-02 9.
       16     1     5     0     0     0 -2.1671665661e+01 -1.7950719710e+02 -5.7020142942e+01  1.8958847962e+02  0.0000000000e+00 0. 9.
        1     1     7     0   104     0 -3.3501187189e-01  1.1398163521e+02  6.3050462091e+01  1.3025895389e+02  3.3000000000e-01 0. 9.
       -2     1     7     0     0   104  4.4715580815e+00  6.9081305031e+01  1.1496443380e+02  1.3419817985e+02  3.3000000000e-01 0. 9.
#pdf   21   21  8.706974e-02  4.860541e-02  3.606804e+02  9.301852e-01  1.888591e+00
</event>
<event>
    12  9999  1.000000e+00  1.756382e+02  7.876032e-03  1.074289e-01
       21    -1     0     0   101   102  0.0000000000e+00  0.0000000000e+00  3.9138961880e+02  3.9138961880e+02  0.0000000000e+00 0. 9.
       21    -1     0     0   102   103  0.0000000000e+00  0.0000000000e+00 -8.1679306248e+01  8.1679306248e+01  0.0000000000e+00 0. 9.
        6     2     1     2   101     0 -1.2313433332e+01 -5.3745580399e+00  2.0227577528e+02  2.7063611360e+02  1.7929838316e+02  1.475420e-13 9.
       -6     2     1     2     0   103  1.2313433332e+01  5.3745580399e+00  1.0743453727e+02  2.0243281144e+02  1.7104489714e+02  5.804031e-14 9.
       24     2     3     0     0     0  6.4289836147e+01 -3.9248473021e+00  1.2866532587e+02  1.6427963369e+02  7.9274488372e+01  9.633719e-14 9.
        5     1     3     0   101     0 -7.6603269479e+01 -1.4497107378e+00  7.3610449408e+01  1.0635647991e+02  4.8000000000e+00 0. 9.
      -24     2     4     0     0     0  5.6391413287e+01  4.4151848232e+01  9.3346873660e+01  1.4186839270e+02  7.9269318345e+01  9.074128e-14 9.
       -5     1     4     0     0   103 -4.4077979955e+01 -3.8777290192e+01  1.4087663609e+01  6.0564418742e+01  4.8000000000e+00 0. 9.
       -1     1     5     0     0   104  9.9535712302e+00  2.0714503795e+01  9.0688387252e+01  9.3555634411e+01  3.3000000000e-01 0. 9.
        2     1     5     0   104     0  5.4336264917e+01 -2.4639351097e+01  3.7976938619e+01  7.0723999282e+01  3.3000000000e-01 0. 9.
        1     1     7     0   105     0  2.0206416576e+00  4.5212587879e+01  6.8446528201e+01  8.2056670773e+01  3.3000000000e-01 0. 9.
       -2     1     7     0     0   105  5.4370771630e+01 -1.0607396473e+00  2.4900345459e+01  5.9811721930e+01  3.3000000000e-01 0. 9.
#pdf   21   21  6.021379e-02  1.256605e-02  1.715717e+02  1.561101e+00  6.785280e+00
</event>
<event>
    12  9999  1.000000e+00  1.855617e+02  7.880979e-03  1.067055e-01
       21    -1     0     0   101   102  0.0000000000e+00  0.0000000000e+00  5.1186113986e+02  5.1186113986e+02  0.0000000000e+00 0. 9.
       21    -1     0     0   103   101  0.0000000000e+00  0.0000000000e+00 -1.2069308671e+02  1.2069308671e+02  0.0000000000e+00 0. 9.
        6     2     1     2   103     0  8.2248953238e+01  2.3331719506e+01 -1.1325560018e+01  1.9165398805e+02  1.7115409250e+02  2.226543e-13 9.
       -6     2     1     2     0   102 -8.2248953238e+01 -2.3331719506e+01  4.0249361317e+02  4.4090023852e+02  1.5837503667e+02  1.456044e-13 9.
       24     2     3     0     0     0  6.3171303986e+00 -2.3803292410e+01  3.3136715273e+01  9.1717583307e+01  8.1899757769e+01  3.567927e-14 9.
        5     1     3     0   103     0  7.5931822840e+01  4.7135011916e+01 -4.4462275291e+01  9.9936404739e+01  4.8000000000e+00 0. 9.
      -24     2     4     0     0     0 -7.6897226901e+01 -6.8798857530e+01  3.3689364820e+02  3.6076100332e+02  7.7490031703e+01  1.115422e-14 9.
       -5     1     4     0     0   102 -5.3517263377e+00  4.5467138024e+01  6.5599964965e+01  8.0139235199e+01  4.8000000000e+00 0. 9.
      -13     1     5     0     0     0 -1.1405415160e+01  1.3192466863e+01 -1.8728335546e+01  2.5590748197e+01  1.0566000000e-01  3.142771e+05 9.
       14     1     5     0     0     0  1.7722545559e+01 -3.6995759273e+01  5.1865050819e+01  6.6126835110e+01  0.0000000000e+00 0. 9.
        1     1     7     0   104     0 -1.6052530471e+01 -4.1120099008e+00  1.7770802442e+02  1.7847925146e+02  3.3000000000e-01 0. 9.
       -2     1     7     0     0   104 -6.0844696430e+01 -6.4686847630e+01  1.5918562378e+02  1.8228175185e+02  3.3000000000e-01 0. 9.
#pdf   21   21  7.874787e-02  1.856817e-02  1.799775e+02  1.129009e+00  4.926070e+00
</event>
<event>
    12  9999  1.000000e+00  1.950540e+02  7.885474e-03  1.060574e-01
       21    -1     0     0   101   102  0.0000000000e+00  0.0000000000e+00  2.2571483207e+02  2.2571483207e+02  0.0000000000e+00 0. 9.
       21    -1     0     0   102   103  0.0000000000e+00  0.0000000000e+00 -1.8073631273e+02  1.8073631273e+02  0.0000000000e+00 0. 9.
        6     2     1     2   101     0 -7.7167124590e+01 -5.4189069065e+01  7.5200935930e+01  2.0870138604e+02  1.7032283302e+02  1.708812e-13 9.
       -6     2     1     2     0   103  7.7167124590e+01  5.4189069065e+01 -3.0222416592e+01  1.9774975875e+02  1.7117345675e+02  1.691912e-13 9.
       24     2     3     0     0     0 -9.7419381892e+01 -4.2062221472e+01  3.6824335081e+00  1.3323516481e+02  8.0487777845e+01  9.200991e-14 9.
        5     1     3     0   101     0  2.0252257302e+01 -1.2126847593e+01  7.1518502421e+01  7.5466221232e+01  4.8000000000e+00 0. 9.
      -24     2     4     0     0     0  1.1961001129e+02  3.7043400387e+01 -2.6138532557e+01  1.5154271713e+02  8.1260100405e+01  1.825488e-13 9.
       -5     1     4     0     0   103 -4.2442886704e+01  1.7145668679e+01 -4.0838840352e+00  4.6207041617e+01  4.8000000000e+00 0. 9.
       -1     1     5     0     0   104 -8.8095846915e+01 -5.1397273643e+01  2.7824900588e+01  1.0572082091e+02  3.3000000000e-01 0. 9.
        2     1     5     0   104     0 -9.3235349772e+00  9.3350521712e+00 -2.4142467080e+01  2.7514343900e+01  3.3000000000e-01 0. 9.
        1     1     7     0   105     0  1.1451576509e+02  5.7511886961e+01 -2.3485582865e+01  1.3028107728e+02  3.3000000000e-01 0. 9.
       -2     1     7     0     0   105  5.0942462073e+00 -2.0468486575e+01 -2.6529496921e+00  2.1261639851e+01  3.3000000000e-01 0. 9.
#pdf   21   21  3.472536e-02  2.780559e-02  1.946820e+02  2.774546e+00  3.432574e+00
</event>
<event>
    12  9999  1.000000e+00  2.893222e+02  7.921183e-03  1.012032e-01
       21    -1     0     0   101   102  0.0000000000e+00  0.0000000000e+00  5.0792366538e+02  5.0792366538e+02  0.0000000000e+00 0. 9.
       21    -1     0     0   102   103  0.0000000000e+00  0.0000000000e+00 -3.3287583660e+02  3.3287583660e+02  0.0000000000e+00 0. 9.
        6     2     1     2   101     0  4.6621000665e+00  2.3333130561e+02  3.8619795124e+02  4.8235305184e+02  1.7044170769e+02  8.211059e-13 9.
       -6     2     1     2     0   103 -4.6621000665e+00 -2.3333130561e+02 -2.1115012246e+02  3.5844645014e+02  1.7156412809e+02  2.176080e-14 9.
       24     2     3     0     0     0 -3.6260674467e+01  2.3126271234e+02  3.2793242467e+02  4.1096072634e+02  8.0942972596e+01  2.441111e-13 9.
        5     1     3     0   101     0  4.0922774534e+01  2.0685932722e+00  5.8265526577e+01  7.1392325505e+01  4.8000000000e+00 0. 9.
      -24     2     4     0     0     0  1.9875474754e+01 -1.7152694462e+02 -2.2037606729e+02  2.9114095501e+02  7.9880644860e+01  2.677554e-14 9.
       -5     1     4     0     0   103 -2.4537574820e+01 -6.1804360991e+01  9.2259448347e+00  6.7305495122e+01  4.8000000000e+00 0. 9.
       -1     1     5     0     0   104 -1.3634756539e+01  1.5276518063e+02  2.7098267664e+02  3.1137570062e+02  3.3000000000e-01 0. 9.
        2     1     5     0   104     0 -2.2625917928e+01  7.8497531708e+01  5.6949748026e+01  9.9585025714e+01  3.3000000000e-01 0. 9.
        3     1     7     0   105     0  1.5454909562e+01 -1.7436291668e+01 -1.4066697127e+00  2.3347531270e+01  5.0000000000e-01 0. 9.
       -4     1     7     0     0   105  4.4205651917e+00 -1.5409065295e+02 -2.1896939758e+02  2.6779342374e+02  1.5000000000e+00 0. 9.
#pdf   21   21  7.814210e-02  5.121167e-02  2.889907e+02  1.093046e+00  1.807485e+00
</event>
<event>
    12  9999  1.000000e+00  2.512510e+02  7.908367e-03  1.028877e-01
       21    -1     0     0   101   102  0.0000000000e+00  0.0000000000e+00  2.6535835369e+02  2.6535835369e+02  0.0000000000e+00 0. 9.
       21    -1     0     0   102   103  0.0000000000e+00  0.0000000000e+00 -3.1307259329e+02  3.1307259329e+02  0.0000000000e+00 0. 9.
        6     2     1     2   101     0 -2.4873671730e+01 -1.8251088873e+02  1.1790054597e+02  2.7711999533e+02  1.7019409221e+02  8.600001e-15 9.
       -6     2     1     2     0   103  2.4873671730e+01  1.8251088873e+02 -1.6561478557e+02  3.0131095165e+02  1.7155497175e+02  1.720703e-13 9.
       24     2     3     0     0     0  4.3752881128e+00 -1.2340343589e+02  1.4434680040e+02  2.0590456859e+02  7.9455279529e+01  4.216922e-15 9.
        5     1     3     0   101     0 -2.9248959843e+01 -5.9107452844e+01 -2.6446254430e+01  7.1215426749e+01  4.8000000000e+00 0. 9.
      -24     2     4     0     0     0 -4.1245040688e+01  9.4613878748e+01 -4.7577506653e+01  1.3990027136e+02  8.1581415501e+01  2.706919e-13 9.
       -5     1     4     0     0   103  6.6118712418e+01  8.7897009983e+01 -1.1803727892e+02  1.6141068028e+02  4.8000000000e+00 0. 9.
       -3     1     5     0     0   104 -5.4767287028e+00 -1.0827456644e+02  6.9227250271e+01  1.2863140547e+02  5.0000000000e-01 0. 9.
        4     1     5     0   104     0  9.8520168157e+00 -1.5128869451e+01  7.5119550126e+01  7.7273163112e+01  1.5000000000e+00 0. 9.
        1     1     7     0   105     0 -7.8413312348e+00 -1.2029102283e+01 -2.0299027842e+01  2.4866547983e+01  3.3000000000e-01 0. 9.
       -2     1     7     0     0   105 -3.3403709453e+01  1.0664298103e+02 -2.7278478811e+01  1.1503372338e+02  3.3000000000e-01 0. 9.
#pdf   21   21  4.082436e-02  4.816501e-02  2.507887e+02  2.326221e+00  1.951271e+00
</event>
<event>
    12  9999  1.000000e+00  2.473509e+02  7.906949e-03  1.030780e-01
       21    -1     0     0   101   102  0.0000000000e+00  0.0000000000e+00  1.6989374751e+02  1.6989374751e+02  0.0000000000e+00 0. 9.
       21    -1     0     0   103   101  0.0000000000e+00  0.0000000000e+00 -3.6674326602e+02  3.6674326602e+02  0.0000000000e+00 0. 9.
        6     2     1     2   103     0 -1.5892962253e+02 -8.0140143070e+01 -1.3430332113e+02  2.8107494355e+02  1.7112765521e+02  1.001746e-13 9.
       -6     2     1     2     0   102  1.5892962253e+02  8.0140143070e+01 -6.2546197384e+01  2.5556206997e+02  1.7239163945e+02  5.176828e-13 9.
       24     2     3     0     0     0 -1.3087165116e+02 -1.6782828537e+01 -4.7724483770e+01  1.7007794296e+02  9.6124023639e+01  5.840961e-15 9.
        5     1     3     0   103     0 -2.8057971376e+01 -6.3357314532e+01 -8.6578837355e+01  1.1099700059e+02  4.8000000000e+00 0. 9.
      -24     2     4     0     0     0  2.2545330549e+01  2.9577672782e+00  6.8288459591e+00  8.4116070103e+01  8.0695971371e+01  3.330942e-13 9.
       -5     1     4     0     0   102  1.3638429198e+02  7.7182375792e+01 -6.9375043343e+01  1.7144599987e+02  4.8000000000e+00 0. 9.
      -15     1     5     0     0     0 -7.3187011463e+01 -4.8605836521e+01 -5.5201113988e+01  1.0377468895e+02  1.7768200000e+00  1.010402e-01 9.
       16     1     5     0     0     0 -5.7684639694e+01  3.1823007984e+01  7.4766302183e+00  6.6303254016e+01  0.0000000000e+00 0. 9.
        3     1     7     0   104     0  4.0415987073e+01  3.0033159579e+01 -2.2150671945e+00  5.0404357035e+01  5.0000000000e-01 0. 9.
       -4     1     7     0     0   104 -1.7870656525e+01 -2.7075392301e+01  9.0439131536e+00  3.3711713068e+01  1.5000000000e+00 0. 9.
#pdf   21   21  2.613750e-02  5.642204e-02  2.469124e+02  3.606390e+00  1.638177e+00
</event>
<event>
    12  9999  1.000000e+00  2.105791e+02  7.892385e-03  1.050779e-01
        2    -1     0     0   101     0  0.0000000000e+00  0.0000000000e+00  3.0196141018e+02  3.0196141018e+02  0.0000000000e+00 0. 9.
       -2    -1     0     0     0   102  0.0000000000e+00  0.0000000000e+00 -1.9435265300e+02  1.9435265300e+02  0.0000000000e+00 0. 9.
        6     2     1     2   101     0  9.0624774627e+01 -8.1438657875e+01  1.7664213117e+02  2.7548861779e+02  1.7276119719e+02  4.905165e-14 9.
       -6     2     1     2     0   102 -9.0624774627e+01  8.1438657875e+01 -6.9033373994e+01  2.2082544539e+02  1.7074298180e+02  2.180260e-13 9.
       24     2     3     0     0     0  6.5228096320e+01 -2.0981409809e+01  1.8008501414e+02  2.0964817766e+02  8.2624584546e+01  4.570596e-14 9.
        5     1     3     0   101     0  2.5396678307e+01 -6.0457248065e+01 -3.4428829784e+00  6.5840440125e+01  4.8000000000e+00 0. 9.
      -24     2     4     0     0     0 -6.6149097079e+01  2.6984137468e+01 -1.0518133379e+02  1.5086782549e+02  8.1204316825e+01  2.000974e-13 9.
       -5     1     4     0     0   102 -2.4475677548e+01  5.4454520406e+01  3.6147959800e+01  6.9957619898e+01  4.8000000000e+00 0. 9.
       -3     1     5     0     0   103  6.8641823488e+01 -3.1571049486e+01  8.4286551418e+01  1.1319409811e+02  5.0000000000e-01 0. 9.
        4     1     5     0   103     0 -3.4137271673e+00  1.0589639677e+01  9.5798462726e+01  9.6454079552e+01  1.5000000000e+00 0. 9.
        1     1     7     0   104     0 -4.4783362662e+01  2.4260145446e+01 -8.2944465696e+00  5.1604369701e+01  3.3000000000e-01 0. 9.
       -4     1     7     0     0   104 -2.1365734418e+01  2.7239920221e+00 -9.6886887225e+01  9.9263455792e+01  1.5000000000e+00 0. 9.
#pdf    2   -2  4.645560e-02  2.990041e-02  2.097576e+02  6.257514e-01  2.471639e-01
</event>
<event>
    12  9999  1.000000e+00  2.002484e+02  7.887844e-03  1.057192e-01
       21    -1     0     0   101   102  0.0000000000e+00  0.0000000000e+00  1.2994967182e+02  1.2994967182e+02  0.0000000000e+00 0. 9.
       21    -1     0     0   102   103  0.0000000000e+00  0.0000000000e+00 -3.0958236658e+02  3.0958236658e+02  0.0000000000e+00 0. 9.
        6     2     1     2   101     0  3.9640836939e+01 -9.5643335751e+01 -1.0241434111e+02  2.2506295531e+02  1.7159718227e+02  5.884400e-14 9.
       -6     2     1     2     0   103 -3.9640836939e+01  9.5643335751e+01 -7.7218353655e+01  2.1446908309e+02  1.7121702553e+02  8.205476e-14 9.
       24     2     3     0     0     0  7.5241177545e+01 -1.7229197061e+01 -7.8499706364e+01  1.3555814453e+02  7.9093151535e+01  1.238201e-14 9.
        5     1     3     0   101     0 -3.5600340605e+01 -7.8414138690e+01 -2.3914634745e+01  8.9504810780e+01  4.8000000000e+00 0. 9.
      -24     2     4     0     0     0 -4.2994782053e+01  7.5081370631e+01  1.6515170469e+01  1.1832826500e+02  7.9013061849e+01  1.484619e-14 9.
       -5     1     4     0     0   103  3.3539451134e+00  2.0561965120e+01 -9.3733524125e+01  9.6140818086e+01  4.8000000000e+00 0. 9.
       -1     1     5     0     0   104  1.1731797363e+01  7.0049859557e+00 -6.4785676460e+01  6.6211763849e+01  3.3000000000e-01 0. 9.
        2     1     5     0   104     0  6.3509380182e+01 -2.4234183017e+01 -1.3714029904e+01  6.9346380683e+01  3.3000000000e-01 0. 9.
       13     1     7     0     0     0 -5.5087702625e+01  6.6481468871e+01 -1.1029488097e+01  8.7040803394e+01  1.0566000000e-01  2.020753e+05 9.
      -14     1     7     0     0     0  1.2092920572e+01  8.5999017603e+00  2.7544658566e+01  3.1287461607e+01  0.0000000000e+00 0. 9.
#pdf   21   21  1.999226e-02  4.762806e-02  2.000858e+02  4.615073e+00  2.003136e+00
</event>
<event>
    12  9999  1.000000e+00  1.601074e+02  7.867713e-03  1.087687e-01
       21    -1     0     0   101   102  0.0000000000e+00  0.0000000000e+00  3.4015996113e+02  3.4015996113e+02  0.0000000000e+00 0. 9.
       21    -1     0     0   102   103  0.0000000000e+00  0.0000000000e+00 -3.3531348373e+02  3.3531348373e+02  0.0000000000e+00 0. 9.
        6     2     1     2   101     0 -2.4628609385e+01 -2.3534640627e+01  2.9913427802e+02  3.3304762976e+02  1.4240421232e+02  3.014861e-13 9.
       -6     2     1     2     0   103  2.4628609385e+01  2.3534640627e+01 -2.9428780062e+02  3.4242581510e+02  1.7172559956e+02  1.029980e-13 9.
       24     2     3     0     0     0 -3.4316780069e+01 -5.2303823459e+01  2.7701598803e+02  2.9518227244e+02  8.0507049375e+01  4.758028e-14 9.
        5     1     3     0   101     0  9.6881706833e+00  2.8769182832e+01  2.2118289995e+01  3.7865357312e+01  4.8000000000e+00 0. 9.
      -24     2     4     0     0     0  5.2154094973e+00 -3.6187874545e+01 -7.8577316084e+01  1.1770887251e+02  7.9650620237e+01  1.324665e-13 9.
       -5     1     4     0     0   103  1.9413199888e+01  5.9722515172e+01 -2.1571048454e+02  2.2471694259e+02  4.8000000000e+00 0. 9.
       -1     1     5     0     0   104 -3.8506299001e+01 -1.6226914052e+01  4.9474493675e+01  6.4760190139e+01  3.3000000000e-01 0. 9.
        2     1     5     0   104     0  4.1895189324e+00 -3.6076909408e+01  2.2754149435e+02  2.3042208231e+02  3.3000000000e-01 0. 9.
        1     1     7     0   105     0  3.9526782321e+00 -1.2268341835e+00 -8.2409683761e+01  8.2514202807e+01  3.3000000000e-01 0. 9.
       -2     1     7     0     0   105  1.2627312653e+00 -3.4961040362e+01  3.8323676771e+00  3.5194669702e+01  3.3000000000e-01 0. 9.
#pdf   21   21  5.233230e-02  5.158669e-02  1.464220e+02  1.842569e+00  1.871405e+00
</event>
<event>
    12  9999  1.000000e+00  1.793923e+02  7.877935e-03  1.071494e-01
       21    -1     0     0   101   102  0.0000000000e+00  0.0000000000e+00  6.2735229477e+02  6.2735229477e+02  0.0000000000e+00 0. 9.
       21    -1     0     0   102   103  0.0000000000e+00  0.0000000000e+00 -8.4402331712e+01  8.4402331712e+01  0.0000000000e+00 0. 9.
        6     2     1     2   101     0  3.2722967269e+01  3.9994584949e+01  4.9553103762e+02  5.2744669781e+02  1.7314343872e+02  6.685018e-15 9.
       -6     2     1     2     0   103 -3.2722967269e+01 -3.9994584949e+01  4.7418925442e+01  1.8430792868e+02  1.7044206837e+02  1.516087e-13 9.
       24     2     3     0     0     0  4.8246709902e+01  8.3490261924e+01  2.7963719731e+02  3.0661633127e+02  8.0735640405e+01  3.655310e-14 9.
        5     1     3     0   101     0 -1.5523742633e+01 -4.3495676975e+01  2.1589384031e+02  2.2083036653e+02  4.8000000000e+00 0. 9.
      -24     2     4     0     0     0 -5.8530650811e+01  2.8945703567e+01  2.4621563913e+01  1.0709679215e+02  8.1239218611e+01  1.899709e-13 9.
       -5     1     4     0     0   103  2.5807683542e+01 -6.8940288517e+01  2.2797361529e+01  7.7211136523e+01  4.8000000000e+00 0. 9.
       -3     1     5     0     0   104 -1.8677499680e+01 -6.9270819886e-02  4.3674949716e+01  4.7503736963e+01  5.0000000000e-01 0. 9.
        2     1     5     0   104     0  6.6924209583e+01  8.3559532744e+01  2.3596224759e+02  2.5911259431e+02  3.3000000000e-01 0. 9.
        1     1     7     0   105     0 -1.6927806802e+01 -2.4466313638e+01  2.5802495021e+01  3.9383102918e+01  3.3000000000e-01 0. 9.
       -2     1     7     0     0   105 -4.1602844009e+01  5.3412017205e+01 -1.1809311077e+00  6.7713689235e+01  3.3000000000e-01 0. 9.
#pdf   21   21  9.651574e-02  1.298497e-02  1.781035e+02  8.683278e-01  6.612666e+00
</event>
<event>
    12  9999  1.000000e+00  2.740570e+02  7.916254e-03  1.018437e-01
       21    -1     0     0   101   102  0.0000000000e+00  0.0000000000e+00  6.0637471737e+02  6.0637471737e+02  0.0000000000e+00 0. 9.
       21    -1     0     0   103   101  0.0000000000e+00  0.0000000000e+00 -1.9831007503e+02  1.9831007503e+02  0.0000000000e+00 0. 9.
        6     2     1     2   103     0  1.6174548101e+02 -1.3439958812e+02 -4.0998989732e+01  2.8020804276e+02  1.8058455126e+02  2.876605e-13 9.
       -6     2     1     2     0   102 -1.6174548101e+02  1.3439958812e+02  4.4906363207e+02  5.2447674964e+02  1.7085919744e+02  1.047411e-13 9.
       24     2     3     0     0     0  1.0061448861e+02 -4.6808678102e+01 -8.8810429496e+01  1.6308358109e+02  7.9966457778e+01  1.167026e-14 9.
        5     1     3     0   103     0  6.1130992398e+01 -8.7590910018e+01  4.7811439764e+01  1.1712446167e+02  4.8000000000e+00 0. 9.
      -24     2     4     0     0     0 -1.2479990944e+02  8.0447337816e+01  1.7631061770e+02  2.4395390312e+02  7.9882922925e+01  3.959117e-14 9.
       -5     1     4     0     0   102 -3.6945571568e+01  5.3952250304e+01  2.7275301437e+02  2.8052284652e+02  4.8000000000e+00 0. 9.
      -15     1     5     0     0     0  5.3919390752e+01  1.6245524123e+00 -3.0170490260e+00  5.4057372705e+01  1.7768200000e+00  1.475481e-01 9.
       16     1     5     0     0     0  4.6695097857e+01 -4.8433230514e+01 -8.5793380470e+01  1.0902620838e+02  0.0000000000e+00 0. 9.
        3     1     7     0   104     0 -1.0798486953e+02  9.3025402303e+01  1.7027238753e+02  2.2205268176e+02  5.0000000000e-01 0. 9.
       -4     1     7     0     0   104 -1.6815039913e+01 -1.2578064486e+01  6.0382301687e+00  2.1901221361e+01  1.5000000000e+00 0. 9.
#pdf   21   21  9.328842e-02  3.050924e-02  2.709570e+02  8.712992e-01  3.103321e+00
</event>
<event>
    12  9999  1.000000e+00  2.332529e+02  7.901632e-03  1.037982e-01
       21    -1     0     0   101   102  0.0000000000e+00  0.0000000000e+00  7.1077634209e+02  7.1077634209e+02  0.0000000000e+00 0. 9.
       21    -1     0     0   103   101  0.0000000000e+00  0.0000000000e+00 -1.6210089471e+02  1.6210089471e+02  0.0000000000e+00 0. 9.
        6     2     1     2   103     0  1.5573715587e+02 -3.1472461508e+01 -4.2863092477e+01  2.3692442320e+02  1.7044459529e+02  9.590282e-14 9.
       -6     2     1     2     0   102 -1.5573715587e+02  3.1472461508e+01  5.9153853986e+02  6.3595281359e+02  1.7109517653e+02  9.212594e-13 9.
       24     2     3     0     0     0  2.9948278581e+01 -7.7549076458e+00  1.5822346063e+01  9.6025932414e+01  8.9518685638e+01  8.090278e-14 9.
        5     1     3     0   103     0  1.2578887729e+02 -2.3717553862e+01 -5.8685438540e+01  1.4089849079e+02  4.8000000000e+00 0. 9.
      -24     2     4     0     0     0 -4.4249679563e+01  3.4669745911e+01  1.1818502143e+02  1.4961314484e+02  7.2500816511e+01  1.156565e-13 9.
       -5     1     4     0     0   102 -1.1148747631e+02 -3.1972844034e+00  4.7335351842e+02  4.8633966876e+02  4.8000000000e+00 0. 9.
       -1     1     5     0     0   104  4.9687801279e+01 -2.7580329985e+01  3.0429119631e+01  6.4463884614e+01  3.3000000000e-01 0. 9.
        2     1     5     0   104     0 -1.9739522697e+01  1.9825422339e+01 -1.4606773568e+01  3.1562047800e+01  3.3000000000e-01 0. 9.
        3     1     7     0   105     0  8.8212890711e+00 -2.9066206860e+00  6.4805575260e+01  6.5469658388e+01  5.0000000000e-01 0. 9.
       -4     1     7     0     0   105 -5.3070968634e+01  3.7576366597e+01  5.3379446171e+01  8.4143486450e+01  1.5000000000e+00 0. 9.
#pdf   21   21  1.093502e-01  2.493860e-02  2.330149e+02  7.095649e-01  3.773227e+00
</event>
<event>
    12  9999  1.000000e+00  2.018980e+02  7.888585e-03  1.056141e-01
       21    -1     0     0   101   102  0.0000000000e+00  0.0000000000e+00  1.5416062418e+03  1.5416062418e+03  0.0000000000e+00 0. 9.
       21    -1     0     0   102   103  0.0000000000e+00  0.0000000000e+00 -2.9123398179e+01  2.9123398179e+01  0.0000000000e+00 0. 9.
        6     2     1     2   101     0  4.6987646543e+01  9.9375055933e+01  9.9460720859e+02  1.0148952508e+03  1.6936832648e+02  1.168113e-13 9.
       -6     2     1     2     0   103 -4.6987646543e+01 -9.9375055933e+01  5.1787563501e+02  5.5583438917e+02  1.6933237783e+02  1.744806e-13 9.
       24     2     3     0     0     0 -1.6027713270e+01  1.2903842314e+01  3.1675898364e+02  3.2863767346e+02  8.5106227539e+01  9.661710e-14 9.
        5     1     3     0   101     0  6.3015359813e+01  8.6471213618e+01  6.7784822496e+02  6.8625757732e+02  4.8000000000e+00 0. 9.
      -24     2     4     0     0     0 -4.0061912707e+01 -5.4443190114e+01  4.9220674841e+02  5.0340567476e+02  8.1121960068e+01  1.932626e-13 9.
       -5     1     4     0     0   103 -6.9257338357e+00 -4.4931865819e+01  2.5668886597e+01  5.2428714406e+01  4.8000000000e+00 0. 9.
      -11     1     5     0     0     0  3.1348228403e+01  2.3220582152e+01  1.4732487954e+02  1.5240251635e+02  5.1100000000e-04 0. 9.
       12     1     5     0     0     0 -4.7375941672e+01 -1.0316739838e+01  1.6943410410e+02  1.7623515711e+02  0.0000000000e+00 0. 9.
        3     1     7     0   104     0 -1.2150533273e+01 -4.0530381225e+01  8.4480847941e+01  9.4486035634e+01  5.0000000000e-01 0. 9.
       -4     1     7     0     0   104 -2.7911379434e+01 -1.3912808889e+01  4.0772590047e+02  4.0891963913e+02  1.5000000000e+00 0. 9.
#pdf   21   21  2.371702e-01  4.480523e-03  2.018829e+02  1.860785e-01  1.453746e+01
</event>
<event>
    12  9999  1.000000e+00  1.639582e+02  7.869847e-03  1.084113e-01
        1    -1     0     0   101     0  0.0000000000e+00  0.0000000000e+00  1.2358467130e+03  1.2358467130e+03  0.0000000000e+00 0. 9.
       -1    -1     0     0     0   102  0.0000000000e+00  0.0000000000e+00 -2.2888968275e+01  2.2888968275e+01  0.0000000000e+00 0. 9.
        6     2     1     2   101     0  3.9188170833e+01  2.6411721072e+01  5.4903383168e+02  5.7878624579e+02  1.7698044591e+02  1.133581e-13 9.
       -6     2     1     2     0   102 -3.9188170833e+01 -2.6411721072e+01  6.6392391306e+02  6.7994943551e+02  1.3893516751e+02  1.926286e-14 9.
       24     2     3     0     0     0  2.9463284820e+01 -3.6759863338e+01  1.6615164799e+02  1.9057621362e+02  8.0582568603e+01  5.234447e-14 9.
        5     1     3     0   101     0  9.7248860130e+00  6.3171584410e+01  3.8288218370e+02  3.8821003217e+02  4.8000000000e+00 0. 9.
      -24     2     4     0     0     0 -5.9002798504e+01 -2.0453232653e+01  3.3267499020e+02  3.4802020819e+02  8.0905817124e+01  1.143376e-13 9.
       -5     1     4     0     0   102  1.9814627671e+01 -5.9584884190e+00  3.3124892286e+02  3.3192922732e+02  4.8000000000e+00 0. 9.
       -3     1     5     0     0   103  2.1439312775e+01 -2.9634603196e+01  1.7361012535e+02  1.7742203770e+02  5.0000000000e-01 0. 9.
        4     1     5     0   103     0  8.0239720454e+00 -7.1252601418e+00 -7.4584773605e+00  1.3154175915e+01  1.5000000000e+00 0. 9.
        3     1     7     0   104     0  5.5979344246e+00 -5.1414260305e-01  1.9048327623e+02  1.9056686421e+02  5.0000000000e-01 0. 9.
       -4     1     7     0     0   104 -6.4600732929e+01 -1.9939090050e+01  1.4219171397e+02  1.5745334397e+02  1.5000000000e+00 0. 9.
#pdf    1   -1  1.901303e-01  3.521380e-03  1.467524e+02  2.370587e-01  8.980785e-01
</event>
<event>
    12  9999  1.000000e+00  2.825003e+02  7.919012e-03  1.014842e-01
       21    -1     0     0   101   102  0.0000000000e+00  0.0000000000e+00  1.4985275813e+03  1.4985275813e+03  0.0000000000e+00 0. 9.
       21    -1     0     0   103   101  0.0000000000e+00  0.0000000000e+00 -5.4126950244e+01  5.4126950244e+01  0.0000000000e+00 0. 9.
        6     2     1     2   103     0  1.8181610995e+02  1.2979991050e+02  6.2656310451e+02  6.8775763447e+02  1.7471154864e+02  5.283019e-14 9.
       -6     2     1     2     0   102 -1.8181610995e+02 -1.2979991050e+02  8.1783752658e+02  8.6489689712e+02  1.7112366332e+02  3.232650e-13 9.
       24     2     3     0     0     0  1.4501512081e+02  1.6327913539e+02  5.3253623396e+02  5.8127165564e+02  8.1193816582e+01  3.824085e-14 9.
        5     1     3     0   103     0  3.6800989145e+01 -3.3479224890e+01  9.4026870549e+01  1.0648597883e+02  4.8000000000e+00 0. 9.
      -24     2     4     0     0     0 -1.9218466850e+02 -1.5080145686e+02  7.4052175672e+02  7.8396890304e+02  8.0986063948e+01  7.482896e-14 9.
       -5     1     4     0     0   102  1.0368558550e+01  2.1001546364e+01  7.7315769857e+01  8.0927994073e+01  4.8000000000e+00 0. 9.
      -15     1     5     0     0     0  2.9312659456e+00  1.9759416006e+01  1.3092453223e+01  2.3949869763e+01  1.7768200000e+00  3.266405e-02 9.
       16     1     5     0     0     0  1.4208385486e+02  1.4351971938e+02  5.1944378074e+02  5.5732178588e+02  0.0000000000e+00 0. 9.
       15     1     7     0     0     0 -4.1323307165e-01  8.2510761326e-01 -1.6339317390e+00  2.5842574147e+00  1.7768200000e+00  2.256822e-02 9.
      -16     1     7     0     0     0 -1.9177143543e+02 -1.5162656448e+02  7.4215568846e+02  7.8138464563e+02  0.0000000000e+00 0. 9.
#pdf   21   21  2.305427e-01  8.327223e-03  2.814044e+02  1.858114e-01  9.371360e+00
</event>
<event>
    12  9999  1.000000e+00  1.831983e+02  7.879824e-03  1.068734e-01
       21    -1     0     0   101   102  0.0000000000e+00  0.0000000000e+00  2.2823048580e+03  2.2823048580e+03  0.0000000000e+00 0. 9.
       21    -1     0     0   103   101  0.0000000000e+00  0.0000000000e+00 -8.4512092518e+01  8.4512092518e+01  0.0000000000e+00 0. 9.
        6     2     1     2   103     0  6.1535354582e+01 -2.1397599328e+01  2.3664266457e+01  1.8500799158e+02  1.7153280247e+02  3.024519e-13 9.
       -6     2     1     2     0   102 -6.1535354582e+01  2.1397599328e+01  2.1741284990e+03  2.1818089589e+03  1.7091268500e+02  1.662485e-13 9.
       24     2     3     0     0     0 -2.0019735281e+01 -4.7706344720e+01  2.1512073050e+00  9.6525030056e+01  8.1460227150e+01  1.782812e-13 9.
        5     1     3     0   103     0  8.1555089862e+01  2.6308745391e+01  2.1513059152e+01  8.8482961527e+01  4.8000000000e+00 0. 9.
      -24     2     4     0     0     0  5.1907673591e+00 -2.8500527729e+01  6.8105272910e+02  6.8640249474e+02  8.0475715696e+01  9.009644e-14 9.
       -5     1     4     0     0   102 -6.6726121941e+01  4.9898127058e+01  1.4930757699e+03  1.4954064642e+03  4.8000000000e+00 0. 9.
       -1     1     5     0     0   104  1.5461225143e+01 -5.7057353803e+01  6.9315300163e+00  5.9520972054e+01  3.3000000000e-01 0. 9.
        2     1     5     0   104     0 -3.5480960423e+01  9.3510090830e+00 -4.7803227114e+00  3.7004058002e+01  3.3000000000e-01 0. 9.
        3     1     7     0   105     0  2.7452571693e+01  1.8759010333e+01  2.5844388612e+02  2.6057443550e+02  5.0000000000e-01 0. 9.
       -4     1     7     0     0   105 -2.2261804334e+01 -4.7259538062e+01  4.2260884298e+02  4.2582805924e+02  1.5000000000e+00 0. 9.
#pdf   21   21  3.511238e-01  1.300186e-02  1.829087e+02  6.137534e-02  6.606591e+00
</event>
<event>
    12  9999  1.000000e+00  2.593387e+02  7.911241e-03  1.025045e-01
       21    -1     0     0   101   102  0.0000000000e+00  0.0000000000e+00  2.1361966192e+02  2.1361966192e+02  0.0000000000e+00 0. 9.
       21    -1     0     0   103   101  0.0000000000e+00  0.0000000000e+00 -3.1729857706e+02  3.1729857706e+02  0.0000000000e+00 0. 9.
        6     2     1     2   103     0 -1.1571416601e+02  1.5656411705e+02 -7.5286810635e+01  2.7051829036e+02  1.7207542125e+02  3.012319e-13 9.
       -6     2     1     2     0   102  1.1571416601e+02 -1.5656411705e+02 -2.8392104509e+01  2.6039994863e+02  1.7058701792e+02  2.655501e-13 9.
       24     2     3     0     0     0 -7.5936882584e+00  6.9145944709e+01 -9.4945852315e+00  1.1662341881e+02  9.3123836344e+01  6.930529e-15 9.
        5     1     3     0   103     0 -1.0812047775e+02  8.7418172341e+01 -6.5792225404e+01  1.5389487155e+02  4.8000000000e+00 0. 9.
      -24     2     4     0     0     0  2.2968612301e+01 -1.3595969813e+01 -1.6947672177e+01  8.9532620304e+01  8.3764306002e+01  2.026648e-13 9.
       -5     1     4     0     0   102  9.2745553708e+01 -1.4296814724e+02 -1.1444432332e+01  1.7086732832e+02  4.8000000000e+00 0. 9.
      -13     1     5     0     0     0 -4.5807588582e+01  5.9544983394e+01 -1.5663889331e+01  7.6741832218e+01  1.0566000000e-01  1.569427e+05 9.
       14     1     5     0     0     0  3.8213900324e+01  9.6009613147e+00  6.1693040993e+00  3.9881586593e+01  0.0000000000e+00 0. 9.
       15     1     7     0     0     0  3.1427660725e+01 -4.5010443501e+01 -6.2215150392e+00  5.5276597413e+01  1.7768200000e+00  1.584116e-01 9.
      -16     1     7     0     0     0 -8.4590484245e+00  3.1414473688e+01 -1.0726157137e+01  3.4256022891e+01  0.0000000000e+00 0. 9.
#pdf   21   21  3.286456e-02  4.881517e-02  2.588475e+02  2.891598e+00  1.919144e+00
</event>
<event>
    12  9999  1.000000e+00  4.074971e+02  7.952466e-03  9.733752e-02
        1    -1     0     0   101     0  0.0000000000e+00  0.0000000000e+00  3.8514317219e+02  3.8514317219e+02  0.0000000000e+00 0. 9.
       -1    -1     0     0     0   102  0.0000000000e+00  0.0000000000e+00 -4.3225312223e+02  4.3225312223e+02  0.0000000000e+00 0. 9.
        6     2     1     2   101     0  1.6669122455e+02  3.3019935229e+02 -2.8978939549e+00  4.0755881419e+02  1.7110877429e+02  2.333610e-13 9.
       -6     2     1     2     0   102 -1.6669122455e+02 -3.3019935229e+02 -4.4212056090e+01  4.0983748023e+02  1.7086391574e+02  8.440835e-15 9.
       24     2     3     0     0     0  1.4413480593e+02  1.9297482247e+02 -5.1816339139e+01  2.6006163495e+02  8.3264617830e+01  1.788954e-14 9.
        5     1     3     0   101     0  2.2556418622e+01  1.3722452982e+02  4.8918445184e+01  1.4749717924e+02  4.8000000000e+00 0. 9.
      -24     2     4     0     0     0 -1.1122181292e+02 -3.1821611838e+02 -6.0238238044e+01  3.5067387631e+02  7.5576005008e+01  2.235192e-14 9.
       -5     1     4     0     0   102 -5.5469411624e+01 -1.1983233908e+01  1.6026181953e+01  5.9163603920e+01  4.8000000000e+00 0. 9.
       -1     1     5     0     0   103  7.3837527359e+01  4.2409809209e+01  2.6592825337e+00  8.5192447125e+01  3.3000000000e-01 0. 9.
        2     1     5     0   103     0  7.0297278567e+01  1.5056501326e+02 -5.4475621673e+01  1.7486918782e+02  3.3000000000e-01 0. 9.
        3     1     7     0   104     0 -2.4726680873e+01 -1.1520570070e+02 -5.4757092234e+01  1.2993210293e+02  5.0000000000e-01 0. 9.
       -4     1     7     0     0   104 -8.6495132051e+01 -2.0301041768e+02 -5.4811458098e+00  2.2074177338e+02  1.5000000000e+00 0. 9.
#pdf    1   -1  5.925280e-02  6.650048e-02  4.074458e+02  4.100713e-01  1.444737e-01
</event>
<event>
    12  9999  1.000000e+00  2.039027e+02  7.889476e-03  1.054877e-01
       21    -1     0     0   101   102  0.0000000000e+00  0.0000000000e+00  1.0671325029e+02  1.0671325029e+02  0.0000000000e+00 0. 9.
       21    -1     0     0   103   101  0.0000000000e+00  0.0000000000e+00 -6.0138782604e+02  6.0138782604e+02  0.0000000000e+00 0. 9.
        6     2     1     2   103     0 -2.4435912704e+01 -1.0817511700e+02 -4.5740725845e+02  5.0078045373e+02  1.7105757215e+02  1.668724e-13 9.
       -6     2     1     2     0   102  2.4435912704e+01  1.0817511700e+02 -3.7267317291e+01  2.0732062259e+02  1.7115495274e+02  9.104721e-14 9.
       24     2     3     0     0     0  3.7990240434e+01 -1.0711520088e+02 -3.4360423473e+02  3.7088697343e+02  8.1094711940e+01  1.728146e-13 9.
        5     1     3     0   103     0 -6.2426153138e+01 -1.0599161144e+00 -1.1380302372e+02  1.2989348031e+02  4.8000000000e+00 0. 9.
      -24     2     4     0     0     0 -4.8040048049e+01  8.5117999986e+01 -1.2953143920e+01  1.2732928207e+02  8.0573208928e+01  3.097167e-14 9.
       -5     1     4     0     0   102  7.2475960753e+01  2.3057117010e+01 -2.4314173371e+01  7.9991340523e+01  4.8000000000e+00 0. 9.
       -1     1     5     0     0   104  4.0879214273e+01 -2.8844793097e+01 -6.8345190679e+01  8.4701276480e+01  3.3000000000e-01 0. 9.
        2     1     5     0   104     0 -2.8889738393e+00 -7.8270407785e+01 -2.7525904405e+02  2.8618569695e+02  3.3000000000e-01 0. 9.
        3     1     7     0   105     0 -3.2937668373e+01  4.5768179344e+01  3.2692797205e+01  6.5181939427e+01  5.0000000000e-01 0. 9.
       -4     1     7     0     0   105 -1.5102379676e+01  3.9349820641e+01 -4.5645941125e+01  6.2147342643e+01  1.5000000000e+00 0. 9.
#pdf   21   21  1.641742e-02  9.252120e-02  2.038619e+02  5.457592e+00  9.065369e-01
</event>
<event>
    12  9999  1.000000e+00  1.922340e+02  7.884161e-03  1.062458e-01
       -1    -1     0     0     0   101  0.0000000000e+00  0.0000000000e+00  4.5023891440e+01  4.5023891440e+01  0.0000000000e+00 0. 9.
        1    -1     0     0   102     0  0.0000000000e+00  0.0000000000e+00 -8.9652539122e+02  8.9652539122e+02  0.0000000000e+00 0. 9.
       -6     2     1     2     0   101  9.1917341763e+01  3.4210188187e+01 -5.5370713560e+02  5.8477879688e+02  1.6048524722e+02  1.848876e-13 9.
        6     2     1     2   102     0 -9.1917341763e+01 -3.4210188187e+01 -2.9779436418e+02  3.5677048578e+02  1.7024852861e+02  7.585165e-14 9.
      -24     2     3     0     0     0  1.7084707787e+01 -2.7530567183e+01 -3.0035981892e+02  3.1344920607e+02  8.3573707550e+01  1.011735e-13 9.
       -5     1     3     0     0   101  7.4832633975e+01  6.1740755370e+01 -2.5334731668e+02  2.7132959081e+02  4.8000000000e+00 0. 9.
       24     2     4     0     0     0 -8.6808979592e+01  1.0230884458e+01 -1.0034880411e+02  1.5426395874e+02  7.8019334431e+01  1.692590e-13 9.
        5     1     4     0   102     0 -5.1083621705e+00 -4.4441072645e+01 -1.9744556007e+02  2.0250652704e+02  4.8000000000e+00 0. 9.
        3     1     5     0   103     0  2.7735260567e+01  2.4172847802e+01 -1.1935753401e+02  1.2490012880e+02  5.0000000000e-01 0. 9.
       -4     1     5     0     0   103 -1.0650552780e+01 -5.1703414985e+01 -1.8100228491e+02  1.8854907727e+02  1.5000000000e+00 0. 9.
       -3     1     7     0     0   104 -9.2027210441e+01 -8.7240559547e+00 -6.2498666936e+01  1.1158606536e+02  5.0000000000e-01 0. 9.
        4     1     7     0   104     0  5.2182308488e+00  1.8954940413e+01 -3.7850137172e+01  4.2677893378e+01  1.5000000000e+00 0. 9.
#pdf   -1    1  6.926753e-03  1.379270e-01  1.880815e+02  6.594386e-01  2.974968e-01
</event>
<event>
    12  9999  1.000000e+00  2.272697e+02  7.899280e-03  1.041204e-01
       21    -1     0     0   101   102  0.0000000000e+00  0.0000000000e+00  2.4431204362e+01  2.4431204362e+01  0.0000000000e+00 0. 9.
       21    -1     0     0   102   103  0.0000000000e+00  0.0000000000e+00 -2.4430210980e+03  2.4430210980e+03  0.0000000000e+00 0. 9.
        6     2     1     2   101     0 -1.0087194221e+02 -1.1121242131e+02 -7.5538168293e+02  7.8875089112e+02  1.7024432432e+02  1.291710e-13 9.
       -6     2     1     2     0   103  1.0087194221e+02  1.1121242131e+02 -1.6632082107e+03  1.6787014113e+03  1.7097814055e+02  2.144743e-13 9.
       24     2     3     0     0     0 -8.0304952399e+00 -4.9837897360e+01 -3.9677467172e+02  4.1324004580e+02  1.0386958395e+02  1.768125e-13 9.
        5     1     3     0   101     0 -9.2841446968e+01 -6.1374523953e+01 -3.5860701121e+02  3.7551084532e+02  4.8000000000e+00 0. 9.
      -24     2     4     0     0     0  5.4451907092e+01  8.3851736328e+01 -5.7214879613e+02  5.8630170743e+02  7.9995770818e+01  1.198158e-13 9.
       -5     1     4     0     0   103  4.6420035115e+01  2.7360684985e+01 -1.0910594146e+03  1.0923997038e+03  4.8000000000e+00 0. 9.
       -3     1     5     0     0   104 -1.9690362050e+01  5.7391568801e-01 -8.3831827986e+00  2.1414189005e+01  5.0000000000e-01 0. 9.
        4     1     5     0   104     0  1.1659866811e+01 -5.0411813048e+01 -3.8839148892e+02  3.9182585680e+02  1.5000000000e+00 0. 9.
        3     1     7     0   105     0  5.0460500097e+01  8.6008680970e+01 -5.7285656636e+02  5.8147110926e+02  5.0000000000e-01 0. 9.
       -4     1     7     0     0   105  3.9914069958e+00 -2.1569446417e+00  7.0777023486e-01  4.8305981719e+00  1.5000000000e+00 0. 9.
#pdf   21   21  3.758647e-03  3.758494e-01  2.269945e+02  1.647122e+01  4.381224e-02
</event>
<event>
    12  9999  1.000000e+00  1.716792e+02  7.873982e-03  1.077319e-01
        2    -1     0     0   101     0  0.0000000000e+00  0.0000000000e+00  1.2228145385e+03  1.2228145385e+03  0.0000000000e+00 0. 9.
       -2    -1     0     0     0   102  0.0000000000e+00  0.0000000000e+00 -2.7180752580e+01  2.7180752580e+01  0.0000000000e+00 0. 9.
        6     2     1     2   101     0 -2.2610299212e+01 -7.5676075359e+00  3.8530154516e+02  4.2152642911e+02  1.6928897019e+02  1.340272e-13 9.
       -6     2     1     2     0   102  2.2610299212e+01  7.5676075359e+00  8.1033224076e+02  8.2846886196e+02  1.7074489893e+02  9.640129e-14 9.
       24     2     3     0     0     0 -2.0897657625e+01  3.0984569045e+01  9.8422263832e+01  1.3202346624e+02  7.9664910764e+01  8.853554e-14 9.
        5     1     3     0   101     0 -1.7126415875e+00 -3.8552176581e+01  2.8687928132e+02  2.8950296287e+02  4.8000000000e+00 0. 9.
      -24     2     4     0     0     0  1.6781682329e+01  5.6306216026e+01  7.0241123242e+02  7.0981217748e+02  8.3664646281e+01  5.635264e-14 9.
       -5     1     4     0     0   102  5.8286168834e+00 -4.8738608490e+01  1.0792100834e+02  1.1865668448e+02  4.8000000000e+00 0. 9.
      -15     1     5     0     0     0  1.0325154921e+01 -1.0705339150e+01 -5.3560557766e+00  1.5907782160e+01  1.7768200000e+00  7.694066e-02 9.
       16     1     5     0     0     0 -3.1222812546e+01  4.1689908194e+01  1.0377831961e+02  1.1611568408e+02  0.0000000000e+00 0. 9.
        1     1     7     0   103     0 -6.9469258026e+00  2.7343127778e+01  5.9912250662e+01  6.6223055608e+01  3.3000000000e-01 0. 9.
       -2     1     7     0     0   103  2.3728608132e+01  2.8963088248e+01  6.4249898176e+02  6.4358912187e+02  3.3000000000e-01 0. 9.
#pdf    2   -2  1.881253e-01  4.181654e-03  1.709598e+02  4.699279e-01  8.242054e-01
</event>
<event>
    12  9999  1.000000e+00  1.968439e+02  7.886298e-03  1.059396e-01
       21    -1     0     0   101   102  0.0000000000e+00  0.0000000000e+00  2.9342604204e+02  2.9342604204e+02  0.0000000000e+00 0. 9.
       21    -1     0     0   102   103  0.0000000000e+00  0.0000000000e+00 -6.5124660581e+02  6.5124660581e+02  0.0000000000e+00 0. 9.
        6     2     1     2   101     0 -7.0029081350e+01  6.6835106984e+01  2.4282734556e+02  3.1259458347e+02  1.7140376339e+02  1.842425e-14 9.
       -6     2     1     2     0   103  7.0029081350e+01 -6.6835106984e+01 -6.0064790933e+02  6.3207806438e+02  1.7138776129e+02  6.902391e-14 9.
       24     2     3     0     0     0 -1.2473615440e+01  1.3625789944e+01  2.3037191545e+01  7.9196608167e+01  7.3485626602e+01  1.357741e-13 9.
        5     1     3     0   101     0 -5.7555465910e+01  5.3209317040e+01  2.1979015401e+02  2.3339797530e+02  4.8000000000e+00 0. 9.
      -24     2     4     0     0     0  7.4685567865e+01 -5.8751394186e+01 -6.0723890093e+02  6.1968813099e+02  7.9023012598e+01  5.408336e-15 9.
       -5     1     4     0     0   103 -4.6564865152e+00 -8.0837127983e+00  6.5909915931e+00  1.2389933392e+01  4.8000000000e+00 0. 9.
       -3     1     5     0     0   104 -6.6100976454e-01 -2.7733892246e+01 -4.4895565846e+00  2.8107149115e+01  5.0000000000e-01 0. 9.
        4     1     5     0   104     0 -1.1812605676e+01  4.1359682190e+01  2.7526748130e+01  5.1089459052e+01  1.5000000000e+00 0. 9.
        1     1     7     0   105     0  3.9574149137e+00 -1.0709002254e+01 -3.1477296315e+02  3.1498011222e+02  3.3000000000e-01 0. 9.
       -2     1     7     0     0   105  7.0728152952e+01 -4.8042391932e+01 -2.9246593778e+02  3.0470801877e+02  3.3000000000e-01 0. 9.
#pdf   21   21  4.514247e-02  1.001918e-01  1.968369e+02  2.122756e+00  8.170048e-01
</event>
<event>
    12  9999  1.000000e+00  3.096874e+02  7.927376e-03  1.004109e-01
       21    -1     0     0   101   102  0.0000000000e+00  0.0000000000e+00  8.1021178997e+02  8.1021178997e+02  0.0000000000e+00 0. 9.
       21    -1     0     0   102   103  0.0000000000e+00  0.0000000000e+00 -4.2865630052e+02  4.2865630052e+02  0.0000000000e+00 0. 9.
        6     2     1     2   101     0  2.8242315823e+01 -2.5677748873e+02  7.1776095351e+02  7.8165380780e+02  1.7049804028e+02  1.210188e-13 9.
       -6     2     1     2     0   103 -2.8242315823e+01  2.5677748873e+02 -3.3620546406e+02  4.5721428269e+02  1.7110955297e+02  2.791068e-13 9.
       24     2     3     0     0     0 -1.1080633753e+01 -1.5559495647e+01  1.2008107955e+02  1.3591648792e+02  6.0736707788e+01  6.011966e-14 9.
        5     1     3     0   101     0  3.9322949576e+01 -2.4121799308e+02  5.9767987395e+02  6.4573731987e+02  4.8000000000e+00 0. 9.
      -24     2     4     0     0     0 -4.3734382990e+01  1.9709017217e+02 -3.2991093464e+02  3.9504322027e+02  8.0378410425e+01  8.679115e-14 9.
       -5     1     4     0     0   103  1.5492067167e+01  5.9687316552e+01 -6.2945294163e+00  6.2171062424e+01  4.8000000000e+00 0. 9.
       -1     1     5     0     0   104 -1.4339366290e+01 -1.2988864445e+01  1.2666060100e+02  1.2813018681e+02  3.3000000000e-01 0. 9.
        2     1     5     0   104     0  3.2587325367e+00 -2.5706312023e+00 -6.5795214490e+00  7.7863011130e+00  3.3000000000e-01 0. 9.
       11     1     7     0     0     0 -4.5079788941e+00  9.6110541202e+01 -8.9738830005e+01  1.3156981270e+02  5.1100000000e-04 0. 9.
      -12     1     7     0     0     0 -3.9226404095e+01  1.0097963097e+02 -2.4017210464e+02  2.6347340757e+02  0.0000000000e+00 0. 9.
#pdf   21   21  1.246480e-01  6.594712e-02  3.095188e+02  5.654887e-01  1.341491e+00
</event>
<event>
    12  9999  1.000000e+00  2.804909e+02  7.918363e-03  1.015685e-01
       21    -1     0     0   101   102  0.0000000000e+00  0.0000000000e+00  1.2441924925e+03  1.2441924925e+03  0.0000000000e+00 0. 9.
       21    -1     0     0   102   103  0.0000000000e+00  0.0000000000e+00 -7.3837776799e+01  7.3837776799e+01  0.0000000000e+00 0. 9.
        6     2     1     2   101     0  5.5798522782e+01 -2.1526259853e+02  8.3546017326e+02  8.8138518034e+02  1.7144874902e+02  4.360842e-14 9.
       -6     2     1     2     0   103 -5.5798522782e+01  2.1526259853e+02  3.3489454242e+02  4.3664508894e+02  1.7044975119e+02  2.998856e-13 9.
       24     2     3     0     0     0  4.0649626471e+01 -9.4404788498e+01  6.2153687922e+02  6.3516918768e+02  8.1037944984e+01  6.907132e-14 9.
        5     1     3     0   101     0  1.5148896311e+01 -1.2085781004e+02  2.1392329405e+02  2.4621599266e+02  4.8000000000e+00 0. 9.
      -24     2     4     0     0     0 -8.1331773479e+01  1.9175930209e+02  3.3401061446e+02  4.0159978736e+02  7.9578962790e+01  9.523324e-14 9.
       -5     1     4     0     0   103  2.5533250697e+01  2.3503296441e+01  8.8392796773e-01  3.5045301588e+01  4.8000000000e+00 0. 9.
       -3     1     5     0     0   104  6.2461239691e+01 -8.0643067833e+01  4.3197683617e+02  4.4385690018e+02  5.0000000000e-01 0. 9.
        4     1     5     0   104     0 -2.1811613220e+01 -1.3761720666e+01  1.8956004305e+02  1.9131228750e+02  1.5000000000e+00 0. 9.
       11     1     7     0     0     0 -1.3795117493e+01  6.3541715835e+01  4.7497846838e+01  8.0522669928e+01  5.1100000000e-04 0. 9.
      -12     1     7     0     0     0 -6.7536655986e+01  1.2821758626e+02  2.8651276762e+02  3.2107711743e+02  0.0000000000e+00 0. 9.
#pdf   21   21  1.914142e-01  1.135966e-02  2.801867e+02  2.744637e-01  7.359027e+00
</event>
<event>
    12  9999  1.000000e+00  3.638913e+02  7.942101e-03  9.858146e-02
       21    -1     0     0   101   102  0.0000000000e+00  0.0000000000e+00  3.5918493956e+02  3.5918493956e+02  0.0000000000e+00 0. 9.
       21    -1     0     0   103   101  0.0000000000e+00  0.0000000000e+00 -5.0300578356e+02  5.0300578356e+02  0.0000000000e+00 0. 9.
        6     2     1     2   103     0  1.6072300475e+02 -2.7746325195e+02 -2.9468687453e+02  4.6816477173e+02  1.7181431555e+02  3.399840e-13 9.
       -6     2     1     2     0   102 -1.6072300475e+02  2.7746325195e+02  1.5086603052e+02  3.9402595139e+02  1.7227347668e+02  1.929966e-13 9.
       24     2     3     0     0     0  4.8577780639e+01 -1.3705293013e+02 -7.0357862380e+01  1.8069624222e+02  8.0978989401e+01  7.885836e-14 9.
        5     1     3     0   103     0  1.1214522411e+02 -1.4041032182e+02 -2.2432901215e+02  2.8746852950e+02  4.8000000000e+00 0. 9.
      -24     2     4     0     0     0 -1.8901787140e+02  2.4691481995e+02  1.4301378857e+02  3.5138203178e+02  7.9509147350e+01  2.642317e-13 9.
       -5     1     4     0     0   102  2.8294866656e+01  3.0548432000e+01  7.8522419565e+00  4.2643919619e+01  4.8000000000e+00 0. 9.
      -11     1     5     0     0     0  2.5013519272e+01 -1.4521927237e+01  1.1867656668e+01  3.1263457776e+01  5.1100000000e-04 0. 9.
       12     1     5     0     0     0  2.3564261367e+01 -1.2253100290e+02 -8.2225519049e+01  1.4943278445e+02  0.0000000000e+00 0. 9.
        1     1     7     0   104     0 -1.3123989014e+02  2.2222935520e+02  1.1276348188e+02  2.8164784185e+02  3.3000000000e-01 0. 9.
       -2     1     7     0     0   104 -5.7777981265e+01  2.4685464753e+01  3.0250306688e+01  6.9734189921e+01  3.3000000000e-01 0. 9.
#pdf   21   21  5.525922e-02  7.738551e-02  3.637828e+02  1.633070e+00  1.084777e+00
</event>
<event>
    12  9999  1.000000e+00  2.569976e+02  7.910419e-03  1.026139e-01
       21    -1     0     0   101   102  0.0000000000e+00  0.0000000000e+00  1.5023859734e+02  1.5023859734e+02  0.0000000000e+00 0. 9.
       21    -1     0     0   103   101  0.0000000000e+00  0.0000000000e+00 -9.1679083476e+02  9.1679083476e+02  0.0000000000e+00 0. 9.
        6     2     1     2   103     0 -1.2362254381e+02  1.4606187614e+02 -7.6871822755e+02  8.1078202146e+02  1.7269385617e+02  7.512371e-14 9.
       -6     2     1     2     0   102  1.2362254381e+02 -1.4606187614e+02  2.1659901366e+00  2.5624741064e+02  1.7041548916e+02  1.151058e-13 9.
       24     2     3     0     0     0 -4.1419514501e+01  2.6996985289e+01 -1.9555629502e+02  2.1962093752e+02  8.6871619537e+01  2.410453e-14 9.
        5     1     3     0   103     0 -8.2203029310e+01  1.1906489085e+02 -5.7316193253e+02  5.9116108394e+02  4.8000000000e+00 0. 9.
      -24     2     4     0     0     0  9.5644047764e+01 -2.9623262091e+01  3.2554208456e+01  1.3260586869e+02  8.0617730010e+01  5.857932e-14 9.
       -5     1     4     0     0   102  2.7978496046e+01 -1.1643861405e+02 -3.0388218320e+01  1.2364154195e+02  4.8000000000e+00 0. 9.
      -11     1     5     0     0     0  2.2979242625e+01  1.1358624561e+01 -1.0067829600e+02  1.0389024607e+02  5.1100000000e-04 0. 9.
       12     1     5     0     0     0 -6.4398757126e+01  1.5638360728e+01 -9.4877999017e+01  1.1573069145e+02  0.0000000000e+00 0. 9.
        3     1     7     0   104     0  8.7697210960e+01 -1.5885465672e+01  5.5256894876e+01  1.0486526241e+02  5.0000000000e-01 0. 9.
       -4     1     7     0     0   104  7.9468368039e+00 -1.3737796419e+01 -2.2702686420e+01  2.7740606272e+01  1.5000000000e+00 0. 9.
#pdf   21   21  2.311363e-02  1.410447e-01  2.562383e+02  4.032672e+00  4.766788e-01
</event>
<event>
    12  9999  1.000000e+00  2.482768e+02  7.907287e-03  1.030325e-01
       21    -1     0     0   101   102  0.0000000000e+00  0.0000000000e+00  2.8340164848e+01  2.8340164848e+01  0.0000000000e+00 0. 9.
       21    -1     0     0   102   103  0.0000000000e+00  0.0000000000e+00 -2.1977701474e+03  2.1977701474e+03  0.0000000000e+00 0. 9.
        6     2     1     2   101     0 -7.2298214970e+01 -1.5954059966e+02 -9.9027541862e+02  1.0219122635e+03  1.8160130702e+02  1.253049e-13 9.
       -6     2     1     2     0   103  7.2298214970e+01  1.5954059966e+02 -1.1791545640e+03  1.2041980488e+03  1.7031506149e+02  2.003622e-13 9.
       24     2     3     0     0     0 -4.8684440803e+01 -1.1163016671e+02 -9.2957309117e+02  9.4091329760e+02  7.9876359964e+01  1.684103e-14 9.
        5     1     3     0   101     0 -2.3613774167e+01 -4.7910432956e+01 -6.0702327448e+01  8.0998965883e+01  4.8000000000e+00 0. 9.
      -24     2     4     0     0     0  8.0931248907e+01  1.6726071036e+02 -8.0783800395e+02  8.3266991107e+02  7.8809440337e+01  8.706575e-14 9.
       -5     1     4     0     0   103 -8.6330339372e+00 -7.7201106947e+00 -3.7131656000e+02  3.7152813772e+02  4.8000000000e+00 0. 9.
      -13     1     5     0     0     0 -4.2215226129e+01 -1.2116222131e+02 -7.4395385070e+02  7.5493691944e+02  1.0566000000e-01  1.277302e+06 9.
       14     1     5     0     0     0 -6.4692146731e+00  9.5320546045e+00 -1.8561924047e+02  1.8597637817e+02  0.0000000000e+00 0. 9.
        3     1     7     0   104     0  1.9312579781e+01  9.5739649265e+01 -2.8230467445e+02  2.9872267305e+02  5.0000000000e-01 0. 9.
       -4     1     7     0     0   104  6.1618669126e+01  7.1521061092e+01 -5.2553332951e+02  5.3394723802e+02  1.5000000000e+00 0. 9.
#pdf   21   21  4.360025e-03  3.381185e-01  2.443102e+02  1.492440e+01  6.500540e-02
</event>
<event>
    12  9999  1.000000e+00  1.880025e+02  7.882156e-03  1.065350e-01
       21    -1     0     0   101   102  0.0000000000e+00  0.0000000000e+00  2.2118480956e+02  2.2118480956e+02  0.0000000000e+00 0. 9.
       21    -1     0     0   102   103  0.0000000000e+00  0.0000000000e+00 -1.6311203452e+02  1.6311203452e+02  0.0000000000e+00 0. 9.
        6     2     1     2   101     0 -5.8659314309e+01  5.2576494281e+01  1.6012065767e+00  1.8768322883e+02  1.7034443817e+02  2.716371e-13 9.
       -6     2     1     2     0   103  5.8659314309e+01 -5.2576494281e+01  5.6471568463e+01  1.9661361525e+02  1.7106335888e+02  9.980286e-14 9.
       24     2     3     0     0     0 -5.8453878488e+01  6.1069350325e+01  5.8430776976e+01  1.3002205576e+02  7.9657126652e+01  9.163360e-14 9.
        5     1     3     0   101     0 -2.0543582088e-01 -8.4928560435e+00 -5.6829570399e+01  5.7661173066e+01  4.8000000000e+00 0. 9.
      -24     2     4     0     0     0 -1.4402394064e+01  1.8583381313e+01  4.3846667249e+01  9.3734223457e+01  7.9440565220e+01  1.290445e-14 9.
       -5     1     4     0     0   103  7.3061708373e+01 -7.1159875595e+01  1.2624901214e+01  1.0287939179e+02  4.8000000000e+00 0. 9.
      -15     1     5     0     0     0 -5.2212864189e+00 -1.8899073621e+01  6.0094221182e+00  2.0584145820e+01  1.7768200000e+00  1.259255e-03 9.
       16     1     5     0     0     0 -5.3232592069e+01  7.9968423946e+01  5.2421354858e+01  1.0943790994e+02  0.0000000000e+00 0. 9.
        1     1     7     0   104     0 -1.4627615689e+01 -2.7243859766e+01  9.1524467195e-01  3.0937705288e+01  3.3000000000e-01 0. 9.
       -2     1     7     0     0   104  2.2522162503e-01  4.5827241079e+01  4.2931422577e+01  6.2796518169e+01  3.3000000000e-01 0. 9.
#pdf   21   21  3.402843e-02  2.509416e-02  1.876764e+02  2.834658e+00  3.776601e+00
</event>
<event>
    12  9999  1.000000e+00  2.119424e+02  7.892968e-03  1.049962e-01
       21    -1     0     0   101   102  0.0000000000e+00  0.0000000000e+00  8.2942255225e+01  8.2942255225e+01  0.0000000000e+00 0. 9.
       21    -1     0     0   103   101  0.0000000000e+00  0.0000000000e+00 -8.2997098033e+02  8.2997098033e+02  0.0000000000e+00 0. 9.
        6     2     1     2   103     0  3.2166536232e+01 -1.2492728166e+02 -6.4032424230e+02  6.7388464751e+02  1.6572227106e+02  1.971198e-13 9.
       -6     2     1     2     0   102 -3.2166536232e+01  1.2492728166e+02 -1.0670448281e+02  2.3902858804e+02  1.7060863839e+02  7.971424e-15 9.
       24     2     3     0     0     0  2.8349713981e+01 -6.8133562059e+01 -5.8250324087e+02  5.9260486575e+02  8.0153681909e+01  1.144557e-14 9.
        5     1     3     0   103     0  3.8168222515e+00 -5.6793719597e+01 -5.7821001429e+01  8.1279781766e+01  4.8000000000e+00 0. 9.
      -24     2     4     0     0     0 -7.9677346065e+01  5.6836065364e+01 -4.0089840111e+01  1.3247230522e+02  7.9767779010e+01  1.258446e-13 9.
       -5     1     4     0     0   102  4.7510809832e+01  6.8091216291e+01 -6.6614642698e+01  1.0655628282e+02  4.8000000000e+00 0. 9.
      -15     1     5     0     0     0 -2.6483646052e+01 -3.4912707592e+01 -2.7661539976e+02  2.8007055742e+02  1.7768200000e+00  6.316846e-01 9.
       16     1     5     0     0     0  5.4833360033e+01 -3.3220854467e+01 -3.0588784111e+02  3.1253430833e+02  0.0000000000e+00 0. 9.
        1     1     7     0   104     0 -2.5187676295e+01  5.5955819495e+01  5.2383582284e+00  6.1587515532e+01  3.3000000000e-01 0. 9.
       -2     1     7     0     0   104 -5.4489669770e+01  8.8024586922e-01 -4.5328198340e+01  7.0884789688e+01  3.3000000000e-01 0. 9.
#pdf   21   21  1.276035e-02  1.276878e-01  2.100128e+02  6.707209e+00  5.714988e-01
</event>
<event>
    12  9999  1.000000e+00  2.062799e+02  7.890523e-03  1.053399e-01
       21    -1     0     0   101   102  0.0000000000e+00  0.0000000000e+00  5.1650305635e+01  5.1650305635e+01  0.0000000000e+00 0. 9.
       21    -1     0     0   103   101  0.0000000000e+00  0.0000000000e+00 -8.2911667234e+02  8.2911667234e+02  0.0000000000e+00 0. 9.
        6     2     1     2   103     0  5.9911171421e+01 -9.9026910651e+01 -4.2340182913e+02  4.7086807003e+02  1.7044633455e+02  2.136989e-13 9.
       -6     2     1     2     0   102 -5.9911171421e+01  9.9026910651e+01 -3.5406453757e+02  4.0989890795e+02  1.7105478794e+02  1.284179e-14 9.
       24     2     3     0     0     0  9.2584350699e+01 -6.1241683225e+01 -3.8017599135e+02  4.0463535071e+02  8.2907037627e+01  4.556753e-14 9.
        5     1     3     0   103     0 -3.2673179278e+01 -3.7785227427e+01 -4.3225837786e+01  6.6232719317e+01  4.8000000000e+00 0. 9.
      -24     2     4     0     0     0  1.6742485844e+01  9.5696466396e+01 -1.8172858802e+02  2.2119386154e+02  8.0394776993e+01  3.109101e-15 9.
       -5     1     4     0     0   102 -7.6653657265e+01  3.3304442557e+00 -1.7233594955e+02  1.8870504640e+02  4.8000000000e+00 0. 9.
       -1     1     5     0     0   104  6.2033986009e+01 -7.3353510150e+01 -3.3668730365e+02  3.5012483804e+02  3.3000000000e-01 0. 9.
        2     1     5     0   104     0  3.0550364690e+01  1.2111826925e+01 -4.3488687698e+01  5.4510512673e+01  3.3000000000e-01 0. 9.
        1     1     7     0   105     0 -2.3961963932e+01  5.0831983821e+01 -4.6227993503e+01  7.2768142604e+01  3.3000000000e-01 0. 9.
       -2     1     7     0     0   105  4.0704449776e+01  4.4864482575e+01 -1.3550059452e+02  1.4842571894e+02  3.3000000000e-01 0. 9.
#pdf   21   21  7.946201e-03  1.275564e-01  2.060282e+02  9.661373e+00  5.737666e-01
</event>
<event>
    12  9999  1.000000e+00  1.917051e+02  7.883913e-03  1.062815e-01
       21    -1     0     0   101   102  0.0000000000e+00  0.0000000000e+00  1.8275353184e+02  1.8275353184e+02  0.0000000000e+00 0. 9.
       21    -1     0     0   102   103  0.0000000000e+00  0.0000000000e+00 -7.3122727121e+02  7.3122727121e+02  0.0000000000e+00 0. 9.
        6     2     1     2   101     0 -8.6660249083e+01  8.2662012853e+00  1.1479266375e+02  2.2362256860e+02  1.7103031509e+02  3.661155e-14 9.
       -6     2     1     2     0   103  8.6660249083e+01 -8.2662012853e+00 -6.6326640312e+02  6.9035823445e+02  1.7056916928e+02  1.820089e-14 9.
       24     2     3     0     0     0  3.5239751743e+00 -2.7530090914e+00  4.5950589505e+00  8.0719911497e+01  8.0464849998e+01  1.189942e-13 9.
        5     1     3     0   101     0 -9.0184224257e+01  1.1019210377e+01  1.1019760480e+02  1.4290265710e+02  4.8000000000e+00 0. 9.
      -24     2     4     0     0     0  6.6906763843e+01 -3.4823518106e+01 -6.4034825032e+02  6.4981476416e+02  8.0772232635e+01  8.993287e-14 9.
       -5     1     4     0     0   103  1.9753485240e+01  2.6557316821e+01 -2.2918152803e+01  4.0543470297e+01  4.8000000000e+00 0. 9.
       -1     1     5     0     0   104 -3.7399919903e+01 -9.9235680588e+00  5.9440859448e+00  3.9149358481e+01  3.3000000000e-01 0. 9.
        2     1     5     0   104     0  4.0923895077e+01  7.1705589673e+00 -1.3490269943e+00  4.1570553016e+01  3.3000000000e-01 0. 9.
       11     1     7     0     0     0  1.6707630415e+01 -3.9678061650e+01 -1.2919342546e+02  1.3617795222e+02  5.1100000000e-04 0. 9.
      -12     1     7     0     0     0  5.0199133428e+01  4.8545435438e+00 -5.1115482486e+02  5.1363681193e+02  0.0000000000e+00 0. 9.
#pdf   21   21  2.811593e-02  1.124965e-01  1.914998e+02  3.399047e+00  6.966405e-01
</event>
<event>
    12  9999  1.000000e+00  2.315090e+02  7.900953e-03  1.038911e-01
        1    -1     0     0   101     0  0.0000000000e+00  0.0000000000e+00  6.5726672404e+01  6.5726672404e+01  0.0000000000e+00 0. 9.
       -1    -1     0     0     0   102  0.0000000000e+00  0.0000000000e+00 -1.3361655607e+03  1.3361655607e+03  0.0000000000e+00 0. 9.
        6     2     1     2   101     0  1.2925823529e+02 -8.7050928293e+01 -1.0729974017e+03  1.0977133882e+03  1.7136424102e+02  7.448219e-14 9.
       -6     2     1     2     0   102 -1.2925823529e+02  8.7050928293e+01 -1.9744148658e+02  3.0417884487e+02  1.7104406899e+02  1.752457e-14 9.
       24     2     3     0     0     0  1.1528423008e+02 -6.3138255182e+01 -4.8138061543e+02  5.0542920765e+02  8.0339865918e+01  2.489889e-13 9.
        5     1     3     0   101     0  1.3974005217e+01 -2.3912673111e+01 -5.9161678629e+02  5.9228418059e+02  4.8000000000e+00 0. 9.
      -24     2     4     0     0     0 -3.8271287010e+01 -1.2485368282e+01 -4.4419501189e+01  1.0015711293e+02  8.0235773525e+01  1.522885e-14 9.
       -5     1     4     0     0   102 -9.0986948284e+01  9.9536296575e+01 -1.5302198539e+02  2.0402173195e+02  4.8000000000e+00 0. 9.
      -11     1     5     0     0     0  8.3509297881e+01 -6.1866099371e+01 -4.4560019460e+02  4.5755955952e+02  5.1100000000e-04 0. 9.
       12     1     5     0     0     0  3.1774932196e+01 -1.2721558115e+00 -3.5780420836e+01  4.7869648125e+01  0.0000000000e+00 0. 9.
       15     1     7     0     0     0 -5.3184638799e+01 -3.4296880441e+01 -3.0026156936e+01  7.0068602111e+01  1.7768200000e+00  3.800040e-02 9.
      -16     1     7     0     0     0  1.4913351790e+01  2.1811512159e+01 -1.4393344253e+01  3.0088510814e+01  0.0000000000e+00 0. 9.
#pdf    1   -1  1.011180e-02  2.055639e-01  2.313906e+02  6.856655e-01  2.960101e-02
</event>
<event>
    12  9999  1.000000e+00  2.876322e+02  7.920650e-03  1.012721e-01
       21    -1     0     0   101   102  0.0000000000e+00  0.0000000000e+00  8.9007363540e+01  8.9007363540e+01  0.0000000000e+00 0. 9.
       21    -1     0     0   102   103  0.0000000000e+00  0.0000000000e+00 -1.4804539319e+03  1.4804539319e+03  0.0000000000e+00 0. 9.
        6     2     1     2   101     0 -1.4928603888e+01  2.3054799756e+02 -2.1709302222e+02  3.6041014065e+02  1.7143758862e+02  7.804554e-14 9.
       -6     2     1     2     0   103  1.4928603888e+01 -2.3054799756e+02 -1.1743535462e+03  1.2090511548e+03  1.7124018567e+02  1.643507e-13 9.
       24     2     3     0     0     0 -1.5127390617e+01  2.3762937910e+02 -1.4998357301e+02  2.9275732360e+02  8.0716903992e+01  1.019047e-13 9.
        5     1     3     0   101     0  1.9878672892e-01 -7.0813815461e+00 -6.7109449212e+01  6.7652817046e+01  4.8000000000e+00 0. 9.
      -24     2     4     0     0     0  3.1059828918e+01 -4.2538094160e+01 -3.8220589116e+02  3.9472389411e+02  8.3375097729e+01  8.867745e-14 9.
       -5     1     4     0     0   103 -1.6131225030e+01 -1.8800990340e+02 -7.9214765501e+02  8.1432726071e+02  4.8000000000e+00 0. 9.
      -11     1     5     0     0     0 -3.3402790417e+01  3.7923359741e+01 -3.6441403019e+01  6.2304923368e+01  5.1100000000e-04 0. 9.
       12     1     5     0     0     0  1.8275399800e+01  1.9970601936e+02 -1.1354216999e+02  2.3045240023e+02  0.0000000000e+00 0. 9.
        3     1     7     0   104     0  3.3539519332e-03 -5.7782160446e+01 -3.0012926110e+02  3.0564129539e+02  5.0000000000e-01 0. 9.
       -4     1     7     0     0   104  3.1056474966e+01  1.5244066287e+01 -8.2076630054e+01  8.9082598723e+01  1.5000000000e+00 0. 9.
#pdf   21   21  1.369344e-02  2.277621e-01  2.875734e+02  6.324488e+00  1.901745e-01
</event>
<event>
    12  9999  1.000000e+00  1.972234e+02  7.886471e-03  1.059148e-01
       21    -1     0     0   101   102  0.0000000000e+00  0.0000000000e+00  4.1203753027e+02  4.1203753027e+02  0.0000000000e+00 0. 9.
       21    -1     0     0   103   101  0.0000000000e+00  0.0000000000e+00 -2.0655196938e+02  2.0655196938e+02  0.0000000000e+00 0. 9.
        6     2     1     2   103     0 -1.2366732317e+01  9.8003643253e+01 -1.2524414179e+02  2.3334618512e+02  1.7031352529e+02  1.196709e-13 9.
       -6     2     1     2     0   102  1.2366732317e+01 -9.8003643253e+01  3.3072970269e+02  3.8524331453e+02  1.7109244574e+02  1.106227e-13 9.
       24     2     3     0     0     0  1.7948186222e+01  4.4294140691e+01 -1.3883096275e+02  1.7001099225e+02  8.5706434878e+01  1.356523e-13 9.
        5     1     3     0   103     0 -3.0314918539e+01  5.3709502562e+01  1.3586820962e+01  6.3335192866e+01  4.8000000000e+00 0. 9.
      -24     2     4     0     0     0 -1.7319907093e+01 -1.2870198407e+02  2.7292968418e+02  3.1321854915e+02  8.2164877767e+01  1.239447e-13 9.
       -5     1     4     0     0   102  2.9686639410e+01  3.0698340821e+01  5.7800018504e+01  7.2024765378e+01  4.8000000000e+00 0. 9.
      -11     1     5     0     0     0  1.8695902568e+01 -5.9941028841e-01  4.9773129055e+00  1.9356386790e+01  5.1100000000e-04 0. 9.
       12     1     5     0     0     0 -7.4771634618e-01  4.4893550979e+01 -1.4380827566e+02  1.5065460546e+02  0.0000000000e+00 0. 9.
       13     1     7     0     0     0 -2.7177853775e+01 -9.4361059700e+01  1.1464050114e+02  1.5094734509e+02  1.0566000000e-01  1.786725e+05 9.
      -14     1     7     0     0     0  9.8579466824e+00 -3.4340924373e+01  1.5828918305e+02  1.6227120407e+02  0.0000000000e+00 0. 9.
#pdf   21   21  6.339039e-02  3.177723e-02  1.968866e+02  1.456561e+00  3.023302e+00
</event>
<event>
    12  9999  1.000000e+00  2.053955e+02  7.890135e-03  1.053947e-01
       21    -1     0     0   101   102  0.0000000000e+00  0.0000000000e+00  2.4946639155e+02  2.4946639155e+02  0.0000000000e+00 0. 9.
       21    -1     0     0   103   101  0.0000000000e+00  0.0000000000e+00 -1.7146221032e+02  1.7146221032e+02  0.0000000000e+00 0. 9.
        6     2     1     2   103     0  1.1297085773e+02  3.2017923260e+01  1.4745442639e+01  2.0767775624e+02  1.7066065819e+02  4.927450e-14 9.
       -6     2     1     2     0   102 -1.1297085773e+02 -3.2017923260e+01  6.3258738596e+01  2.1325084562e+02  1.6639318810e+02  1.296808e-13 9.
       24     2     3     0     0     0 -2.4585368982e+00  2.7681668535e+01  2.2797908658e+01  9.1787159310e+01  8.4456016947e+01  6.310728e-14 9.
        5     1     3     0   103     0  1.1542939463e+02  4.3362547247e+00 -8.0524660196e+00  1.1589059693e+02  4.8000000000e+00 0. 9.
      -24     2     4     0     0     0 -5.7478364212e+01  4.4226572962e+01  2.7847111440e+01  1.1240609673e+02  8.1239872347e+01  2.819494e-13 9.
       -5     1     4     0     0   102 -5.5492493516e+01 -7.6244496222e+01  3.5411627156e+01  1.0084474889e+02  4.8000000000e+00 0. 9.
       -1     1     5     0     0   104  8.7290333247e-01  5.7197602689e+01  2.4051099474e+01  6.2055555751e+01  3.3000000000e-01 0. 9.
        2     1     5     0   104     0 -3.3314402307e+00 -2.9515934154e+01 -1.2531908157e+00  2.9731603560e+01  3.3000000000e-01 0. 9.
        3     1     7     0   105     0 -4.7787374177e+01  2.3002609523e+01  5.5113415351e+01  7.6488507158e+01  5.0000000000e-01 0. 9.
       -4     1     7     0     0   105 -9.6909900344e+00  2.1223963439e+01 -2.7266303911e+01  3.5917589575e+01  1.5000000000e+00 0. 9.
#pdf   21   21  3.837944e-02  2.637880e-02  2.036523e+02  2.505765e+00  3.599071e+00
</event>
<event>
    12  9999  1.000000e+00  1.889634e+02  7.882615e-03  1.064686e-01
       21    -1     0     0   101   102  0.0000000000e+00  0.0000000000e+00  1.2287519073e+02  1.2287519073e+02  0.0000000000e+00 0. 9.
       21    -1     0     0   102   103  0.0000000000e+00  0.0000000000e+00 -3.0174949406e+02  3.0174949406e+02  0.0000000000e+00 0. 9.
        6     2     1     2   101     0 -6.1116217983e+01 -5.3341993432e+01 -4.8613131457e+01  1.9510078329e+02  1.7064735195e+02  7.189645e-13 9.
       -6     2     1     2     0   103  6.1116217983e+01  5.3341993432e+01 -1.3026117188e+02  2.2952390149e+02  1.7068300470e+02  2.781601e-13 9.
       24     2     3     0     0     0 -8.9501474740e+01  3.7585967883e+00 -5.1713066067e+01  1.3107852311e+02  8.0515197244e+01  5.748855e-14 9.
        5     1     3     0   101     0  2.8385256757e+01 -5.7100590221e+01  3.0999346101e+00  6.4022260186e+01  4.8000000000e+00 0. 9.
      -24     2     4     0     0     0  8.8577580634e+01  4.1003005012e-02 -1.1886106185e+02  1.6830197300e+02  7.9697005094e+01  5.581651e-14 9.
       -5     1     4     0     0   103 -2.7461362651e+01  5.3300990427e+01 -1.1400110030e+01  6.1221928489e+01  4.8000000000e+00 0. 9.
       -1     1     5     0     0   104 -7.8449444686e+01  2.3083136070e+01 -8.2092889421e+00  8.2186664777e+01  3.3000000000e-01 0. 9.
        4     1     5     0   104     0 -1.1052030054e+01 -1.9324539281e+01 -4.3503777125e+01  4.8891858329e+01  1.5000000000e+00 0. 9.
        1     1     7     0   105     0  5.4889051349e+01 -4.8956091785e+00 -1.2342032676e+01  5.6473087553e+01  3.3000000000e-01 0. 9.
       -2     1     7     0     0   105  3.3688529285e+01  4.9366121835e+00 -1.0651902917e+02  1.1182888545e+02  3.3000000000e-01 0. 9.
#pdf   21   21  1.890388e-02  4.642300e-02  1.889473e+02  4.848282e+00  2.065681e+00
</event>
<event>
    12  9999  1.000000e+00  1.803247e+02  7.878401e-03  1.070811e-01
       21    -1     0     0   101   102  0.0000000000e+00  0.0000000000e+00  7.9003437307e+01  7.9003437307e+01  0.0000000000e+00 0. 9.
       21    -1     0     0   103   101  0.0000000000e+00  0.0000000000e+00 -4.3457962847e+02  4.3457962847e+02  0.0000000000e+00 0. 9.
        6     2     1     2   103     0 -4.0234339081e+01  3.7730835083e+01 -2.3847383981e+02  3.0006868125e+02  1.7357713915e+02  1.482427e-13 9.
       -6     2     1     2     0   102  4.0234339081e+01 -3.7730835083e+01 -1.1710235135e+02  2.1351438452e+02  1.6980286732e+02  1.104590e-13 9.
       24     2     3     0     0     0 -7.6236386602e+01 -1.6216366166e+01 -1.2508891920e+02  1.6935667656e+02  8.3423551916e+01  1.051509e-14 9.
        5     1     3     0   103     0  3.6002047522e+01  5.3947201249e+01 -1.1338492062e+02  1.3071200470e+02  4.8000000000e+00 0. 9.
      -24     2     4     0     0     0  1.5623814414e+01 -7.2337384708e+01 -4.9755246999e+01  1.3375246588e+02  9.9686191230e+01  2.564655e-14 9.
       -5     1     4     0     0   102  2.4610524667e+01  3.4606549625e+01 -6.7347104348e+01  7.9761918642e+01  4.8000000000e+00 0. 9.
       -1     1     5     0     0   104  1.4412329406e+01 -1.7545186578e+01 -1.7532300774e+01  2.8688661199e+01  3.3000000000e-01 0. 9.
        2     1     5     0   104     0 -9.0648716009e+01  1.3288204120e+00 -1.0755661842e+02  1.4066801536e+02  3.3000000000e-01 0. 9.
        3     1     7     0   105     0 -1.6432074970e+01  6.0103144991e+00 -4.5759505408e+01  4.8993053624e+01  5.0000000000e-01 0. 9.
       -4     1     7     0     0   105  3.2055889384e+01 -7.8347699207e+01 -3.9957415908e+00  8.4759412257e+01  1.5000000000e+00 0. 9.
#pdf   21   21  1.215437e-02  6.685840e-02  1.785369e+02  6.968126e+00  1.378344e+00
</event>
<event>
    12  9999  1.000000e+00  1.996133e+02  7.887558e-03  1.057600e-01
       -1    -1     0     0     0   101  0.0000000000e+00  0.0000000000e+00  5.1807881964e+02  5.1807881964e+02  0.0000000000e+00 0. 9.
        1    -1     0     0   102     0  0.0000000000e+00  0.0000000000e+00 -7.9986441349e+01  7.9986441349e+01  0.0000000000e+00 0. 9.
       -6     2     1     2     0   101 -9.8176903301e+01  2.9759841998e+01  2.7731882575e+02  3.4148437896e+02  1.7082592726e+02  3.080698e-13 9.
        6     2     1     2   102     0  9.8176903301e+01 -2.9759841998e+01  1.6077355254e+02  2.5658088203e+02  1.7164283057e+02  2.182625e-14 9.
      -24     2     3     0     0     0 -3.9324612068e+01 -1.0245538066e+01  4.8194169080e+01  1.0151527489e+02  7.9569321585e+01  1.162491e-13 9.
       -5     1     3     0     0   101 -5.8852291233e+01  4.0005380063e+01  2.2912465667e+02  2.3996910408e+02  4.8000000000e+00 0. 9.
       24     2     4     0     0     0  5.5516845122e+01 -4.1823429021e+01  1.8804517895e+01  1.0777343095e+02  8.0188423222e+01  1.075167e-14 9.
        5     1     4     0   102     0  4.2660058179e+01  1.2063587023e+01  1.4196903465e+02  1.4880745107e+02  4.8000000000e+00 0. 9.
        1     1     5     0   103     0 -2.9338159776e+01 -4.3035219676e+01  1.5995544260e+01  5.4485999007e+01  3.3000000000e-01 0. 9.
       -2     1     5     0     0   103 -9.9864522922e+00  3.2789681611e+01  3.2198624820e+01  4.7029275880e+01  3.3000000000e-01 0. 9.
       -3     1     7     0     0   104  5.4326095388e+01 -4.2561586338e+01  4.4420972105e+01  8.2074880655e+01  5.0000000000e-01 0. 9.
        4     1     7     0   104     0  1.1907497344e+00  7.3815731693e-01 -2.5616454210e+01  2.5698550299e+01  1.5000000000e+00 0. 9.
#pdf   -1    1  7.970443e-02  1.230561e-02  1.992633e+02  1.222684e-01  6.376866e-01
</event>
<event>
    12  9999  1.000000e+00  1.773108e+02  7.876884e-03  1.073034e-01
       21    -1     0     0   101   102  0.0000000000e+00  0.0000000000e+00  3.6789743611e+01  3.6789743611e+01  0.0000000000e+00 0. 9.
       21    -1     0     0   102   103  0.0000000000e+00  0.0000000000e+00 -9.4968162608e+02  9.4968162608e+02  0.0000000000e+00 0. 9.
        6     2     1     2   101     0 -8.4760659292e+00  4.5873618793e+01 -3.0066193449e+02  3.4912023592e+02  1.7120487050e+02  9.004272e-14 9.
       -6     2     1     2     0   103  8.4760659292e+00 -4.5873618793e+01 -6.1222994799e+02  6.3735113378e+02  1.7092315794e+02  5.769170e-13 9.
       24     2     3     0     0     0  5.0812967272e+01  1.9197689130e+01 -2.4486716308e+02  2.6331294486e+02  8.0145308461e+01  2.155366e-14 9.
        5     1     3     0   101     0 -5.9289033201e+01  2.6675929663e+01 -5.5794771411e+01  8.5807291054e+01  4.8000000000e+00 0. 9.
      -24     2     4     0     0     0  3.2234147818e+01 -6.1560033505e+01 -5.9292367283e+02  6.0261955849e+02  8.2238509600e+01  1.207854e-14 9.
       -5     1     4     0     0   103 -2.3758081888e+01  1.5686414712e+01 -1.9306275154e+01  3.4731575286e+01  4.8000000000e+00 0. 9.
       -3     1     5     0     0   104  4.8009063423e+01  2.6301517618e+01 -7.2882881457e+01  9.1152643457e+01  5.0000000000e-01 0. 9.
        4     1     5     0   104     0  2.8039038493e+00 -7.1038284885e+00 -1.7198428162e+02  1.7216030140e+02  1.5000000000e+00 0. 9.
       11     1     7     0     0     0 -1.8644195987e+01 -3.1751830022e+01 -1.0757891970e+02  1.1370579896e+02  5.1100000000e-04 0. 9.
      -12     1     7     0     0     0  5.0878343805e+01 -2.9808203483e+01 -4.8534475314e+02  4.8891375953e+02  0.0000000000e+00 0. 9.
#pdf   21   21  5.659961e-03  1.461049e-01  1.771749e+02  1.229225e+01  4.733461e-01
</event>
<event>
    12  9999  1.000000e+00  2.030450e+02  7.889096e-03  1.055416e-01
       21    -1     0     0   101   102  0.0000000000e+00  0.0000000000e+00  2.7900710038e+02  2.7900710038e+02  0.0000000000e+00 0. 9.
       21    -1     0     0   102   103  0.0000000000e+00  0.0000000000e+00 -1.5259088577e+02  1.5259088577e+02  0.0000000000e+00 0. 9.
        6     2     1     2   101     0 -9.8505552198e+01 -4.8559914767e+01  1.0150944875e+02  2.2677377714e+02  1.7047219326e+02  1.372606e-14 9.
       -6     2     1     2     0   103  9.8505552198e+01  4.8559914767e+01  2.4906765864e+01  2.0482420901e+02  1.7108828270e+02  1.129341e-13 9.
       24     2     3     0     0     0 -6.6478628019e+01  1.1203912915e+01  1.2148726395e+00  1.0561486921e+02  8.1290153375e+01  9.109084e-14 9.
        5     1     3     0   101     0 -3.2026924179e+01 -5.9763827682e+01  1.0029457611e+02  1.2115890792e+02  4.8000000000e+00 0. 9.
      -24     2     4     0     0     0  1.0208700475e+02  8.5258291051e+01 -9.1923492574e+00  1.5437237776e+02  7.7817729344e+01  3.422884e-14 9.
       -5     1     4     0     0   103 -3.5814525504e+00 -3.6698376284e+01  3.4099115121e+01  5.0451831248e+01  4.8000000000e+00 0. 9.
       -1     1     5     0     0   104  6.4225151361e-02  1.9507980665e+01  2.7389174595e+01  3.3627982686e+01  3.3000000000e-01 0. 9.
        2     1     5     0   104     0 -6.6542853170e+01 -8.3040677506e+00 -2.6174301955e+01  7.1986886529e+01  3.3000000000e-01 0. 9.
        3     1     7     0   105     0  2.7994100769e+01 -7.1861328817e+00  1.6291288247e+01  3.3180811569e+01  5.0000000000e-01 0. 9.
       -4     1     7     0     0   105  7.4092903980e+01  9.2444423933e+01 -2.5483637504e+01  1.2119156620e+02  1.5000000000e+00 0. 9.
#pdf   21   21  4.292417e-02  2.347552e-02  2.027860e+02  2.234200e+00  4.002821e+00
</event>
<event>
    12  9999  1.000000e+00  3.092224e+02  7.927239e-03  1.004283e-01
       21    -1     0     0   101   102  0.0000000000e+00  0.0000000000e+00  1.5576391241e+02  1.5576391241e+02  0.0000000000e+00 0. 9.
       21    -1     0     0   103   101  0.0000000000e+00  0.0000000000e+00 -1.1379384239e+03  1.1379384239e+03  0.0000000000e+00 0. 9.
        6     2     1     2   103     0  1.9172709724e+02 -1.7178536737e+02 -9.2989864220e+02  9.7990406952e+02  1.7097078242e+02  2.370495e-13 9.
       -6     2     1     2     0   102 -1.9172709724e+02  1.7178536737e+02 -5.2275869325e+01  3.1379826683e+02  1.7165981909e+02  3.824378e-15 9.
       24     2     3     0     0     0  1.7476746737e+02 -1.9710340963e+02 -8.6490464448e+02  9.0796039678e+02  8.3298357303e+01  1.377666e-13 9.
        5     1     3     0   103     0  1.6959629874e+01  2.5318042254e+01 -6.4993997718e+01  7.1943672748e+01  4.8000000000e+00 0. 9.
      -24     2     4     0     0     0 -7.0401516296e+01  1.0502136644e+02 -8.4193082908e+01  1.7160446621e+02  7.9835810922e+01  6.150294e-15 9.
       -5     1     4     0     0   102 -1.2132558095e+02  6.6764000928e+01  3.1917213583e+01  1.4219380062e+02  4.8000000000e+00 0. 9.
      -13     1     5     0     0     0  3.2676746205e+01 -1.5925583144e+01 -5.4726539571e+01  6.5699309269e+01  1.0566000000e-01  1.676856e+06 9.
       14     1     5     0     0     0  1.4209072116e+02 -1.8117782648e+02 -8.1017810491e+02  8.4226108751e+02  0.0000000000e+00 0. 9.
        1     1     7     0   104     0 -5.4852027721e+01  3.3839507503e+01 -6.0054776391e+00  6.4730455543e+01  3.3000000000e-01 0. 9.
       -2     1     7     0     0   104 -1.5549488574e+01  7.1181858941e+01 -7.8187605269e+01  1.0687401066e+02  3.3000000000e-01 0. 9.
#pdf   21   21  2.396368e-02  1.750674e-01  3.090316e+02  3.880351e+00  3.200121e-01
</event>
<event>
    12  9999  1.000000e+00  2.208908e+02  7.896706e-03  1.044757e-01
       -4    -1     0     0     0   101  0.0000000000e+00  0.0000000000e+00  2.6094384276e+02  2.6094384276e+02  0.0000000000e+00 0. 9.
        4    -1     0     0   102     0  0.0000000000e+00  0.0000000000e+00 -1.9180078897e+02  1.9180078897e+02  0.0000000000e+00 0. 9.
       -6     2     1     2     0   101 -1.1346349889e+02 -8.4751658308e+01  7.0551417596e+01  2.3264449398e+02  1.7055541295e+02  1.967570e-14 9.
        6     2     1     2   102     0  1.1346349889e+02  8.4751658308e+01 -1.4083638009e+00  2.2010013775e+02  1.6847931025e+02  4.828128e-14 9.
      -24     2     3     0     0     0 -6.3194219884e+01 -8.4768741037e+01 -9.4000247571e+00  1.3808089719e+02  8.8310389075e+01  1.632062e-14 9.
       -5     1     3     0     0   101 -5.0269279004e+01  1.7082729073e-02  7.9951442353e+01  9.4563596789e+01  4.8000000000e+00 0. 9.
       24     2     4     0     0     0  1.2523851971e+02  8.7566905900e+01 -4.2744082206e+01  1.7676125970e+02  7.7877060416e+01  2.411293e-13 9.
        5     1     4     0   102     0 -1.1775020826e+01 -2.8152475923e+00  4.1335718405e+01  4.3338878049e+01  4.8000000000e+00 0. 9.
       15     1     5     0     0     0 -1.0455021815e+01 -1.8250191170e+01  3.6061718144e+01  4.1784944223e+01  1.7768200000e+00  2.084666e-01 9.
      -16     1     5     0     0     0 -5.2739198069e+01 -6.6518549867e+01 -4.5461742901e+01  9.6295952963e+01  0.0000000000e+00 0. 9.
      -13     1     7     0     0     0 -1.0436942741e+01  6.6657812132e+00 -8.7951707666e+00  1.5189753316e+01  1.0566000000e-01  9.872910e+05 9.
       14     1     7     0     0     0  1.3567546246e+02  8.0901124687e+01 -3.3948911440e+01  1.6157150639e+02  0.0000000000e+00 0. 9.
#pdf   -4    4  4.014521e-02  2.950781e-02  2.200956e+02  1.027897e-01  1.374902e-01
</event>
<event>
    12  9999  1.000000e+00  1.891611e+02  7.882709e-03  1.064550e-01
       21    -1     0     0   101   102  0.0000000000e+00  0.0000000000e+00  4.4937267845e+02  4.4937267845e+02  0.0000000000e+00 0. 9.
       21    -1     0     0   102   103  0.0000000000e+00  0.0000000000e+00 -8.2963539773e+01  8.2963539773e+01  0.0000000000e+00 0. 9.
        6     2     1     2   101     0  8.1814059482e+01 -5.1673253700e+00  1.3047037186e+02  2.3036004517e+02  1.7123957164e+02  3.643343e-13 9.
       -6     2     1     2     0   103 -8.1814059482e+01  5.1673253700e+00  2.3593876681e+02  3.0197617305e+02  1.6971230311e+02  6.535031e-14 9.
       24     2     3     0     0     0  9.1975258160e+01  2.0779500467e+01  1.5118759207e+02  1.9530678651e+02  7.9973852641e+01  2.358652e-14 9.
        5     1     3     0   101     0 -1.0161198678e+01 -2.5946825837e+01 -2.0717220205e+01  3.5053258659e+01  4.8000000000e+00 0. 9.
      -24     2     4     0     0     0 -7.6218911626e+01 -5.7637596559e+01  1.4765443160e+02  1.9338092573e+02  8.0392389183e+01  6.125290e-14 9.
       -5     1     4     0     0   103 -5.5951478562e+00  6.2804921929e+01  8.8284335206e+01  1.0859524732e+02  4.8000000000e+00 0. 9.
       -1     1     5     0     0   104 -8.6209796678e+00  2.0876614802e+01  2.1581678096e+01  3.1241511895e+01  3.3000000000e-01 0. 9.
        2     1     5     0   104     0  1.0059623783e+02 -9.7114335020e-02  1.2960591397e+02  1.6406527461e+02  3.3000000000e-01 0. 9.
       13     1     7     0     0     0 -3.8611979826e+01 -7.4257658282e+01  1.0192249801e+02  1.3188362887e+02  1.0566000000e-01  2.584677e+05 9.
      -14     1     7     0     0     0 -3.7606931800e+01  1.6620061723e+01  4.5731933593e+01  6.1497296861e+01  0.0000000000e+00 0. 9.
#pdf   21   21  6.913426e-02  1.276362e-02  1.884742e+02  1.318940e+00  6.705428e+00
</event>
<event>
    12  9999  1.000000e+00  2.158478e+02  7.894618e-03  1.047658e-01
       21    -1     0     0   101   102  0.0000000000e+00  0.0000000000e+00  1.3908360970e+02  1.3908360970e+02  0.0000000000e+00 0. 9.
       21    -1     0     0   103   101  0.0000000000e+00  0.0000000000e+00 -3.9158507415e+02  3.9158507415e+02  0.0000000000e+00 0. 9.
        6     2     1     2   103     0 -1.3130460456e+02 -1.7610213656e+01 -2.2702950701e+02  3.1312193121e+02  1.7015266071e+02  1.033882e-14 9.
       -6     2     1     2     0   102  1.3130460456e+02  1.7610213656e+01 -2.5471957440e+01  2.1754675263e+02  1.7066560920e+02  3.137583e-15 9.
       24     2     3     0     0     0 -1.5648555759e+02 -3.0029541590e+01 -1.6240429092e+02  2.4249772391e+02  8.3907623555e+01  3.176380e-14 9.
        5     1     3     0   103     0  2.5180953031e+01  1.2419327934e+01 -6.4625216092e+01  7.0624207301e+01  4.8000000000e+00 0. 9.
      -24     2     4     0     0     0  1.4437762631e+02  5.5830021140e+01 -1.7871817456e+01  1.7616487605e+02  8.2175248427e+01  5.213156e-14 9.
       -5     1     4     0     0   102 -1.3073021754e+01 -3.8219807484e+01 -7.6001399840e+00  4.1381876585e+01  4.8000000000e+00 0. 9.
      -13     1     5     0     0     0 -1.0402546555e+02 -1.2891073175e+00 -5.0574693770e+01  1.1567527867e+02  1.0566000000e-01  1.147131e+05 9.
       14     1     5     0     0     0 -5.2460092037e+01 -2.8740434272e+01 -1.1182959715e+02  1.2682244524e+02  0.0000000000e+00 0. 9.
        1     1     7     0   104     0  8.6083363314e+01 -3.8702838045e+00 -3.1240942838e+01  9.1659314560e+01  3.3000000000e-01 0. 9.
       -2     1     7     0     0   104  5.8294262997e+01  5.9700304945e+01  1.3369125382e+01  8.4505561488e+01  3.3000000000e-01 0. 9.
#pdf   21   21  2.139748e-02  6.024386e-02  2.156454e+02  4.340957e+00  1.534680e+00
</event>
<event>
    12  9999  1.000000e+00  2.006628e+02  7.888031e-03  1.056927e-01
       21    -1     0     0   101   102  0.0000000000e+00  0.0000000000e+00  2.9286572279e+02  2.9286572279e+02  0.0000000000e+00 0. 9.
       21    -1     0     0   103   101  0.0000000000e+00  0.0000000000e+00 -1.5354462523e+02  1.5354462523e+02  0.0000000000e+00 0. 9.
        6     2     1     2   103     0 -4.4242959295e+01 -9.6170534219e+01  1.4040094293e+02  2.4154547766e+02  1.6560670850e+02  1.074621e-13 9.
       -6     2     1     2     0   102  4.4242959295e+01  9.6170534219e+01 -1.0798453623e+00  2.0486487037e+02  1.7539167011e+02  4.687524e-14 9.
       24     2     3     0     0     0  2.1172214853e+01 -5.9008768257e+01  1.2862850500e+02  1.6524493930e+02  8.2645630579e+01  1.633288e-13 9.
        5     1     3     0   103     0 -6.5415174148e+01 -3.7161765962e+01  1.1772437931e+01  7.6300538354e+01  4.8000000000e+00 0. 9.
      -24     2     4     0     0     0  2.6141065216e+01  1.3556982771e+02 -1.0853072844e+01  1.6015984971e+02  8.0441623507e+01  1.590474e-14 9.
       -5     1     4     0     0   102  1.8101894079e+01 -3.9399293489e+01  9.7732274816e+00  4.4705020658e+01  4.8000000000e+00 0. 9.
      -11     1     5     0     0     0  1.4386337924e+01 -7.3507846296e+01  1.2907101129e+02  1.4923034591e+02  5.1100000000e-04 0. 9.
       12     1     5     0     0     0  6.7858769291e+00  1.4499078039e+01 -4.4250628793e-01  1.6014593391e+01  0.0000000000e+00 0. 9.
        1     1     7     0   104     0  4.1181669278e+01  1.3761826729e+02 -1.4976422599e+01  1.4442686561e+02  3.3000000000e-01 0. 9.
       -2     1     7     0     0   104 -1.5040604061e+01 -2.0484395850e+00  4.1233497551e+00  1.5732984093e+01  3.3000000000e-01 0. 9.
#pdf   21   21  4.505627e-02  2.362225e-02  1.965497e+02  2.127222e+00  3.983788e+00
</event>
<event>
    12  9999  1.000000e+00  2.632624e+02  7.912604e-03  1.023239e-01
       21    -1     0     0   101   102  0.0000000000e+00  0.0000000000e+00  2.5007274334e+02  2.5007274334e+02  0.0000000000e+00 0. 9.
       21    -1     0     0   103   101  0.0000000000e+00  0.0000000000e+00 -2.7877476028e+02  2.7877476028e+02  0.0000000000e+00 0. 9.
        6     2     1     2   103     0 -1.0889272332e+02 -1.6806484715e+02 -3.4567465960e+01  2.6584450357e+02  1.7139128431e+02  3.885477e-13 9.
       -6     2     1     2     0   102  1.0889272332e+02  1.6806484715e+02  5.8654490247e+00  2.6300300004e+02  1.7039001291e+02  1.095487e-13 9.
       24     2     3     0     0     0 -1.1169919992e+02 -1.0614668359e+02 -7.7256062634e+01  1.9043169580e+02  8.0943819110e+01  6.852948e-14 9.
        5     1     3     0   103     0  2.8064766058e+00 -6.1918163561e+01  4.2688596674e+01  7.5412807770e+01  4.8000000000e+00 0. 9.
      -24     2     4     0     0     0  3.8539726261e+01  7.3264304228e+01  7.9816910776e+01  1.2361668139e+02  4.5358305710e+01  2.832441e-14 9.
       -5     1     4     0     0   102  7.0352997056e+01  9.4800542924e+01 -7.3951461752e+01  1.3938631866e+02  4.8000000000e+00 0. 9.
      -11     1     5     0     0     0 -5.8038328943e+01 -1.0199907643e+02 -6.8555182132e+01  1.3591200174e+02  5.1100000000e-04 0. 9.
       12     1     5     0     0     0 -5.3660870980e+01 -4.1476071614e+00 -8.7008805021e+00  5.4519694066e+01  0.0000000000e+00 0. 9.
       11     1     7     0     0     0  2.4490043065e+01  7.5380956947e+01  7.3402348726e+01  1.0802756907e+02  5.1100000000e-04 0. 9.
      -12     1     7     0     0     0  1.4049683196e+01 -2.1166527194e+00  6.4145620509e+00  1.5589112321e+01  0.0000000000e+00 0. 9.
#pdf   21   21  3.847273e-02  4.288842e-02  2.629376e+02  2.466886e+00  2.203312e+00
</event>
<event>
    12  9999  1.000000e+00  2.842331e+02  7.919569e-03  1.014120e-01
       21    -1     0     0   101   102  0.0000000000e+00  0.0000000000e+00  1.4196877303e+03  1.4196877303e+03  0.0000000000e+00 0. 9.
       21    -1     0     0   102   103  0.0000000000e+00  0.0000000000e+00 -6.2358057488e+01  6.2358057488e+01  0.0000000000e+00 0. 9.
        6     2     1     2   101     0  2.1823822306e+02 -6.0842191232e+01  8.9727176708e+02  9.4114437809e+02  1.7124959032e+02  1.127794e-13 9.
       -6     2     1     2     0   103 -2.1823822306e+02  6.0842191232e+01  4.6005790575e+02  5.4090140971e+02  1.7202140608e+02  5.394524e-14 9.
       24     2     3     0     0     0  9.1902530316e+01 -3.5026470544e+01  2.4609499755e+02  2.7730600630e+02  8.1626861953e+01  1.564672e-13 9.
        5     1     3     0   101     0  1.2633569274e+02 -2.5815720688e+01  6.5117676953e+02  6.6383837179e+02  4.8000000000e+00 0. 9.
      -24     2     4     0     0     0 -9.3883014982e+01 -5.3447671353e+00  3.1462134341e+02  3.3836804234e+02  8.1631827809e+01  1.555768e-13 9.
       -5     1     4     0     0   103 -1.2435520807e+02  6.6186958368e+01  1.4543656234e+02  2.0253336737e+02  4.8000000000e+00 0. 9.
       -3     1     5     0     0   104 -1.1512374116e+01  9.5712992309e-01  6.2279061225e+01  6.3343368418e+01  5.0000000000e-01 0. 9.
        4     1     5     0   104     0  1.0341490443e+02 -3.5983600467e+01  1.8381593633e+02  2.1396263788e+02  1.5000000000e+00 0. 9.
        1     1     7     0   105     0  5.0713433297e+00  2.1416767854e+01  5.6547128333e+01  6.0680170494e+01  3.3000000000e-01 0. 9.
       -2     1     7     0     0   105 -9.8954358312e+01 -2.6761534989e+01  2.5807421507e+02  2.7768787185e+02  3.3000000000e-01 0. 9.
#pdf   21   21  2.184135e-01  9.593547e-03  2.840002e+02  2.090209e-01  8.406272e+00
</event>
<event>
    12  9999  1.000000e+00  2.131820e+02  7.893495e-03  1.049225e-01
       21    -1     0     0   101   102  0.0000000000e+00  0.0000000000e+00  2.5663017286e+02  2.5663017286e+02  0.0000000000e+00 0. 9.
       21    -1     0     0   103   101  0.0000000000e+00  0.0000000000e+00 -1.9041814758e+02  1.9041814758e+02  0.0000000000e+00 0. 9.
        6     2     1     2   103     0 -1.2599798116e+02  1.2358680438e+01 -2.5952858583e+01  2.1527626782e+02  1.7216879038e+02  7.747970e-13 9.
       -6     2     1     2     0   102  1.2599798116e+02 -1.2358680438e+01  9.2164883867e+01  2.3177205262e+02  1.7086746419e+02  1.457791e-13 9.
       24     2     3     0     0     0 -4.0433006505e+01 -4.7362767655e+01 -3.7684040011e+01  1.1016358130e+02  8.2691402204e+01  1.490671e-13 9.
        5     1     3     0   103     0 -8.5564974653e+01  5.9721448093e+01  1.1731181428e+01  1.0511268652e+02  4.8000000000e+00 0. 9.
      -24     2     4     0     0     0  1.5618438314e+02 -2.7608948342e+00  5.3794053910e+01  1.8178508487e+02  7.5834245335e+01  6.053550e-15 9.
       -5     1     4     0     0   102 -3.0186401984e+01 -9.5977856038e+00  3.8370829958e+01  4.9986967750e+01  4.8000000000e+00 0. 9.
       -3     1     5     0     0   104 -5.6112575074e+01 -2.9035956735e+00 -2.3540851120e+01  6.0921864883e+01  5.0000000000e-01 0. 9.
        4     1     5     0   104     0  1.5679568569e+01 -4.4459171982e+01 -1.4143188890e+01  4.9241716418e+01  1.5000000000e+00 0. 9.
        3     1     7     0   105     0  6.7306666285e+01  3.4888690456e+01  3.4712577591e+01  8.3382378781e+01  5.0000000000e-01 0. 9.
       -4     1     7     0     0   105  8.8877716857e+01 -3.7649585290e+01  1.9081476319e+01  9.8402706084e+01  1.5000000000e+00 0. 9.
#pdf   21   21  3.948157e-02  2.929510e-02  2.126592e+02  2.429288e+00  3.257719e+00
</event>
<event>
    12  9999  1.000000e+00  1.907118e+02  7.883445e-03  1.063489e-01
       21    -1     0     0   101   102  0.0000000000e+00  0.0000000000e+00  5.2515550518e+01  5.2515550518e+01  0.0000000000e+00 0. 9.
       21    -1     0     0   103   101  0.0000000000e+00  0.0000000000e+00 -1.0200562648e+03  1.0200562648e+03  0.0000000000e+00 0. 9.
        6     2     1     2   103     0 -8.0310294843e+01 -2.1601086201e+01 -7.8930281266e+02  8.1224631509e+02  1.7271015001e+02  2.418674e-13 9.
       -6     2     1     2     0   102  8.0310294843e+01  2.1601086201e+01 -1.7823790162e+02  2.6032550023e+02  1.7054109802e+02  2.184100e-14 9.
       24     2     3     0     0     0 -9.3516853916e+01 -5.7192193196e+01 -7.1595839650e+02  7.2952036099e+02  8.7104435303e+01  2.415524e-13 9.
        5     1     3     0   103     0  1.3206559073e+01  3.5591106995e+01 -7.3344416165e+01  8.2725954103e+01  4.8000000000e+00 0. 9.
      -24     2     4     0     0     0 -1.8897428040e+00  2.2265375653e+01 -1.5375634282e+02  1.7442047016e+02  7.9260137353e+01  1.061684e-14 9.
       -5     1     4     0     0   102  8.2200037647e+01 -6.6428945197e-01 -2.4481558800e+01  8.5905030068e+01  4.8000000000e+00 0. 9.
       -1     1     5     0     0   104 -1.0324518728e+02 -2.6819861225e+01 -5.0298472328e+02  5.1417177520e+02  3.3000000000e-01 0. 9.
        2     1     5     0   104     0  9.7283333620e+00 -3.0372331971e+01 -2.1297367321e+02  2.1534858579e+02  3.3000000000e-01 0. 9.
       13     1     7     0     0     0  2.4212823551e+01 -2.0437855940e+01 -7.0234263988e+01  7.7050825964e+01  1.0566000000e-01  2.958451e+05 9.
      -14     1     7     0     0     0 -2.6102566355e+01  4.2703231593e+01 -8.3522078834e+01  9.7369644200e+01  0.0000000000e+00 0. 9.
#pdf   21   21  8.079315e-03  1.569317e-01  1.897383e+02  9.527420e+00  4.170355e-01
</event>
<event>
    12  9999  1.000000e+00  1.795358e+02  7.878007e-03  1.071388e-01
       21    -1     0     0   101   102  0.0000000000e+00  0.0000000000e+00  1.5297908613e+03  1.5297908613e+03  0.0000000000e+00 0. 9.
       21    -1     0     0   102   103  0.0000000000e+00  0.0000000000e+00 -4.1912775098e+01  4.1912775098e+01  0.0000000000e+00 0. 9.
        6     2     1     2   101     0  4.6742283178e+01 -2.7173914833e+01  1.2995154318e+03  1.3119519813e+03  1.7191387714e+02  6.235505e-14 9.
       -6     2     1     2     0   103 -4.6742283178e+01  2.7173914833e+01  1.8836265448e+02  2.5975165514e+02  1.7049096769e+02  4.098175e-14 9.
       24     2     3     0     0     0  1.2334251231e+01 -6.2363976628e+01  1.0203407904e+03  1.0284316584e+03  1.1195958254e+02  2.110346e-14 9.
        5     1     3     0   101     0  3.4408031947e+01  3.5190061795e+01  2.7917464141e+02  2.8352032294e+02  4.8000000000e+00 0. 9.
      -24     2     4     0     0     0 -2.6870570786e+01 -2.6296357491e+01  1.8193855654e+02  2.0214728022e+02  7.9676587230e+01  1.332174e-13 9.
       -5     1     4     0     0   103 -1.9871712393e+01  5.3470272324e+01  6.4240979385e+00  5.7604374922e+01  4.8000000000e+00 0. 9.
       -1     1     5     0     0   104  5.0543760386e+01 -4.9404275035e+01  3.6079517421e+02  3.6765298957e+02  3.3000000000e-01 0. 9.
        2     1     5     0   104     0 -3.8209509155e+01 -1.2959701593e+01  6.5954561615e+02  6.6077866880e+02  3.3000000000e-01 0. 9.
        3     1     7     0   105     0 -4.2004896314e+01  1.4252223044e+01  1.0208120602e+02  1.1130300894e+02  5.0000000000e-01 0. 9.
       -4     1     7     0     0   105  1.5134325529e+01 -4.0548580535e+01  7.9857350520e+01  9.0844271282e+01  1.5000000000e+00 0. 9.
#pdf   21   21  2.353524e-01  6.448119e-03  1.788587e+02  1.939970e-01  1.121020e+01
</event>
<event>
    12  9999  1.000000e+00  1.744144e+02  7.875403e-03  1.075216e-01
       21    -1     0     0   101   102  0.0000000000e+00  0.0000000000e+00  2.1188503103e+02  2.1188503103e+02  0.0000000000e+00 0. 9.
       21    -1     0     0   103   101  0.0000000000e+00  0.0000000000e+00 -5.3853891131e+02  5.3853891131e+02  0.0000000000e+00 0. 9.
        6     2     1     2   103     0  2.3072327203e+01  2.6889443491e+01 -4.8460594280e+02  5.1497002852e+02  1.7057501582e+02  1.507301e-14 9.
       -6     2     1     2     0   102 -2.3072327203e+01 -2.6889443491e+01  1.5795206251e+02  2.3545391383e+02  1.7098045804e+02  1.660855e-13 9.
       24     2     3     0     0     0 -4.2032927526e+01  2.5928003890e+01 -1.7255581994e+02  1.9616297443e+02  7.9154110195e+01  3.025967e-13 9.
        5     1     3     0   103     0  6.5105254729e+01  9.6143960107e-01 -3.1205012286e+02  3.1880705408e+02  4.8000000000e+00 0. 9.
      -24     2     4     0     0     0  3.3971228711e+00  2.6272596533e+01  2.3258548604e+01  8.8171134876e+01  8.0817072266e+01  1.626415e-13 9.
       -5     1     4     0     0   102 -2.6469450074e+01 -5.3162040024e+01  1.3469351391e+02  1.4728277895e+02  4.8000000000e+00 0. 9.
       -1     1     5     0     0   104 -3.7706271435e+01  5.3153997054e+01 -1.3063694589e+02  1.4599051627e+02  3.3000000000e-01 0. 9.
        2     1     5     0   104     0 -4.3266560912e+00 -2.7225993165e+01 -4.1918874049e+01  5.0172458165e+01  3.3000000000e-01 0. 9.
       13     1     7     0     0     0  4.1273214373e+01  5.1548064651e+00  9.3744476628e+00  4.2637327395e+01  1.0566000000e-01  6.982376e+05 9.
      -14     1     7     0     0     0 -3.7876091501e+01  2.1117790068e+01  1.3884100941e+01  4.5533807481e+01  0.0000000000e+00 0. 9.
#pdf   21   21  3.259770e-02  8.285214e-02  1.742160e+02  2.963827e+00  1.062054e+00
</event>
<event>
    12  9999  1.000000e+00  2.604631e+02  7.911634e-03  1.024524e-01
       21    -1     0     0   101   102  0.0000000000e+00  0.0000000000e+00  3.2686327861e+02  3.2686327861e+02  0.0000000000e+00 0. 9.
       21    -1     0     0   102   103  0.0000000000e+00  0.0000000000e+00 -2.4680552221e+02  2.4680552221e+02  0.0000000000e+00 0. 9.
        6     2     1     2   101     0 -8.2322735084e+01  1.7819846038e+02 -7.4397476134e+01  2.7062099673e+02  1.7078938908e+02  1.129849e-13 9.
       -6     2     1     2     0   103  8.2322735084e+01 -1.7819846038e+02  1.5445523254e+02  3.0304780409e+02  1.7160952396e+02  1.924928e-13 9.
       24     2     3     0     0     0 -4.8352399897e+01  1.6078441509e+01 -2.4706068229e+01  9.7620533693e+01  7.9516714809e+01  4.294137e-13 9.
        5     1     3     0   101     0 -3.3970335187e+01  1.6212001887e+02 -4.9691407905e+01  1.7300046303e+02  4.8000000000e+00 0. 9.
      -24     2     4     0     0     0  7.1502629030e+01 -1.8747467297e+02  8.4212481978e+01  2.3121322452e+02  7.8156471977e+01  5.039751e-14 9.
       -5     1     4     0     0   103  1.0820106054e+01  9.2762125909e+00  7.0242750563e+01  7.1834579568e+01  4.8000000000e+00 0. 9.
       -3     1     5     0     0   104  1.5660364927e+01 -1.5497466854e+01  1.0872047179e-01  2.2038156200e+01  5.0000000000e-01 0. 9.
        4     1     5     0   104     0 -6.4012764824e+01  3.1575908363e+01 -2.4814788701e+01  7.5582377494e+01  1.5000000000e+00 0. 9.
       11     1     7     0     0     0  1.2425996056e+01 -1.3698954771e+02  5.0968302798e+01  1.4669120440e+02  5.1100000000e-04 0. 9.
      -12     1     7     0     0     0  5.9076632974e+01 -5.0485125260e+01  3.3244179180e+01  8.4522020121e+01  0.0000000000e+00 0. 9.
#pdf   21   21  5.028666e-02  3.797008e-02  2.601937e+02  1.856971e+00  2.501601e+00
</event>
<event>
    12  9999  1.000000e+00  1.899359e+02  7.883077e-03  1.064019e-01
       21    -1     0     0   101   102  0.0000000000e+00  0.0000000000e+00  6.6075049324e+02  6.6075049324e+02  0.0000000000e+00 0. 9.
       21    -1     0     0   102   103  0.0000000000e+00  0.0000000000e+00 -9.7264612157e+01  9.7264612157e+01  0.0000000000e+00 0. 9.
        6     2     1     2   101     0 -2.1953041262e+01  7.8875756511e+01  5.3169803780e+02  5.6417983939e+02  1.6997872450e+02  4.501657e-14 9.
       -6     2     1     2     0   103  2.1953041262e+01 -7.8875756511e+01  3.1787843284e+01  1.9383526601e+02  1.7279560869e+02  4.417903e-14 9.
       24     2     3     0     0     0  2.2787195806e+01  9.2675540598e+01  2.5989875603e+02  2.8833565796e+02  8.0511341739e+01  5.047550e-14 9.
        5     1     3     0   101     0 -4.4740237068e+01 -1.3799784087e+01  2.7179928178e+02  2.7584418143e+02  4.8000000000e+00 0. 9.
      -24     2     4     0     0     0  6.7802302223e+01 -9.4381571485e+01  2.8983679760e+01  1.4511680584e+02  8.1937783847e+01  6.738796e-14 9.
       -5     1     4     0     0   103 -4.5849260962e+01  1.5505814974e+01  2.8041635234e+00  4.8718460175e+01  4.8000000000e+00 0. 9.
       -1     1     5     0     0   104  2.3433744619e+01  3.2654236458e+01  2.8485870897e+01  4.9264523608e+01  3.3000000000e-01 0. 9.
        2     1     5     0   104     0 -6.4654881325e-01  6.0021304140e+01  2.3141288513e+02  2.3907113435e+02  3.3000000000e-01 0. 9.
       13     1     7     0     0     0  3.6128147322e+01 -1.0282694192e+02  2.6957527733e+01  1.1227351638e+02  1.0566000000e-01  7.811870e+03 9.
      -14     1     7     0     0     0  3.1674154902e+01  8.4453704391e+00  2.0261520271e+00  3.2843289461e+01  0.0000000000e+00 0. 9.
#pdf   21   21  1.016539e-01  1.496379e-02  1.886693e+02  8.044773e-01  5.896651e+00
</event>
<event>
    12  9999  1.000000e+00  2.305902e+02  7.900593e-03  1.039403e-01
       21    -1     0     0   101   102  0.0000000000e+00  0.0000000000e+00  8.6317104471e+02  8.6317104471e+02  0.0000000000e+00 0. 9.
       21    -1     0     0   102   103  0.0000000000e+00  0.0000000000e+00 -8.2399612459e+01  8.2399612459e+01  0.0000000000e+00 0. 9.
        6     2     1     2   101     0 -8.5224917752e+01 -1.2830355845e+02  6.2862238037e+02  6.6977314208e+02  1.7235102272e+02  2.932623e-13 9.
       -6     2     1     2     0   103  8.5224917752e+01  1.2830355845e+02  1.5214905188e+02  2.7579751509e+02  1.7085036032e+02  1.360389e-13 9.
       24     2     3     0     0     0 -6.8274492359e+01 -1.1240907724e+02  6.2728415351e+02  6.4600799311e+02  8.0893207204e+01  5.290747e-15 9.
        5     1     3     0   101     0 -1.6950425392e+01 -1.5894481217e+01  1.3382268594e+00  2.3765148964e+01  4.8000000000e+00 0. 9.
      -24     2     4     0     0     0  1.2001643594e+02  1.2549584303e+02  1.3990369553e+02  2.3849708940e+02  8.4585259466e+01  2.098718e-15 9.
       -5     1     4     0     0   103 -3.4791518190e+01  2.8077154249e+00  1.2245356352e+01  3.7300425682e+01  4.8000000000e+00 0. 9.
       -3     1     5     0     0   104 -1.3310703861e+01 -2.3377477949e+01  3.2977469772e+01  4.2561071710e+01  5.0000000000e-01 0. 9.
        2     1     5     0   104     0 -5.4963788498e+01 -8.9031599288e+01  5.9430668374e+02  6.0344692140e+02  3.3000000000e-01 0. 9.
        3     1     7     0   105     0  4.7315073172e+01  8.5957682600e+00  6.7692920927e+01  8.3037250225e+01  5.0000000000e-01 0. 9.
       -4     1     7     0     0   105  7.2701362769e+01  1.1690007477e+02  7.2210774598e+01  1.5545983918e+02  1.5000000000e+00 0. 9.
#pdf   21   21  1.327955e-01  1.267686e-02  2.300325e+02  5.318384e-01  6.741221e+00
</event>
<event>
    12  9999  1.000000e+00  1.752690e+02  7.875843e-03  1.074568e-01
       21    -1     0     0   101   102  0.0000000000e+00  0.0000000000e+00  1.8912634678e+02  1.8912634678e+02  0.0000000000e+00 0. 9.
       21    -1     0     0   103   101  0.0000000000e+00  0.0000000000e+00 -3.3109271934e+02  3.3109271934e+02  0.0000000000e+00 0. 9.
        6     2     1     2   103     0 -4.0886146867e+01 -6.1876373738e+00 -2.5668653507e+02  3.1096944913e+02  1.7059911237e+02  6.726952e-14 9.
       -6     2     1     2     0   102  4.0886146867e+01  6.1876373738e+00  1.1472016251e+02  2.0924961700e+02  1.7004329644e+02  1.640926e-13 9.
       24     2     3     0     0     0 -4.1307509166e+01 -6.5735621277e+01 -1.9189882203e+02  2.2284097646e+02  8.2495216085e+01  1.043455e-13 9.
        5     1     3     0   103     0  4.2136229928e-01  5.9547983903e+01 -6.4787713045e+01  8.8128472667e+01  4.8000000000e+00 0. 9.
      -24     2     4     0     0     0 -2.6203825338e+01 -1.4878727686e+01  1.0744116855e+02  1.3839144979e+02  8.1857019697e+01  1.932254e-13 9.
       -5     1     4     0     0   102  6.7089972205e+01  2.1066365059e+01  7.2789939519e+00  7.0858167209e+01  4.8000000000e+00 0. 9.
      -11     1     5     0     0     0 -5.6353926822e+01 -3.7592184704e+01 -1.7290890918e+02  1.8570521881e+02  5.1100000000e-04 0. 9.
       12     1     5     0     0     0  1.5046417656e+01 -2.8143436573e+01 -1.8989912846e+01  3.7135757651e+01  0.0000000000e+00 0. 9.
        3     1     7     0   104     0 -3.7299948008e+01  1.0354223268e+01  1.4340649520e+01  4.1284383119e+01  5.0000000000e-01 0. 9.
       -4     1     7     0     0   104  1.1096122670e+01 -2.5232950953e+01  9.3100519035e+01  9.7107066667e+01  1.5000000000e+00 0. 9.
#pdf   21   21  2.909636e-02  5.093734e-02  1.749991e+02  3.301224e+00  1.878210e+00
</event>
<event>
    12  9999  1.000000e+00  1.910772e+02  7.883617e-03  1.063241e-01
       21    -1     0     0   101   102  0.0000000000e+00  0.0000000000e+00  2.0983143700e+02  2.0983143700e+02  0.0000000000e+00 0. 9.
       21    -1     0     0   103   101  0.0000000000e+00  0.0000000000e+00 -1.7425217403e+02  1.7425217403e+02  0.0000000000e+00 0. 9.
        6     2     1     2   103     0 -3.5419181603e+01  7.6842164341e+01  1.0455057438e+01  1.9114055393e+02  1.7107357038e+02  6.010049e-15 9.
       -6     2     1     2     0   102  3.5419181603e+01 -7.6842164341e+01  2.5124205530e+01  1.9294305711e+02  1.7157086273e+02  2.666546e-14 9.
       24     2     3     0     0     0 -2.8221472356e+01 -7.4163064584e+00 -3.7625761098e+01  9.3743931649e+01  8.0751307849e+01  2.656284e-14 9.
        5     1     3     0   103     0 -7.1977092466e+00  8.4258470800e+01  4.8080818537e+01  9.7396622277e+01  4.8000000000e+00 0. 9.
      -24     2     4     0     0     0 -4.7689078626e+01 -4.2498581945e+01  1.4708969290e+01  1.0228997268e+02  7.8527110261e+01  6.480356e-14 9.
       -5     1     4     0     0   102  8.3108260229e+01 -3.4343582396e+01  1.0415236240e+01  9.0653084426e+01  4.8000000000e+00 0. 9.
      -15     1     5     0     0     0 -1.0706429823e+01 -3.3335280178e+01  1.0276015759e+01  3.6532480525e+01  1.7768200000e+00  1.766795e-01 9.
       16     1     5     0     0     0 -1.7515042533e+01  2.5918973719e+01 -4.7901776858e+01  5.7211451124e+01  0.0000000000e+00 0. 9.
        3     1     7     0   104     0  1.3009825563e+01 -3.1472359384e+01 -1.0482582365e+01  3.5635649277e+01  5.0000000000e-01 0. 9.
       -4     1     7     0     0   104 -6.0698904189e+01 -1.1026222561e+01  2.5191551655e+01  6.6654323404e+01  1.5000000000e+00 0. 9.
#pdf   21   21  3.228176e-02  2.680803e-02  1.908544e+02  2.981443e+00  3.553205e+00
</event>
<event>
    12  9999  1.000000e+00  1.782953e+02  7.877383e-03  1.072303e-01
       21    -1     0     0   101   102  0.0000000000e+00  0.0000000000e+00  3.9095763623e+02  3.9095763623e+02  0.0000000000e+00 0. 9.
       21    -1     0     0   103   101  0.0000000000e+00  0.0000000000e+00 -1.5344039321e+02  1.5344039321e+02  0.0000000000e+00 0. 9.
        6     2     1     2   103     0 -3.2185017716e+01  3.9360896160e+01 -6.7905092743e+01  1.9068891112e+02  1.7078057176e+02  7.020725e-14 9.
       -6     2     1     2     0   102  3.2185017716e+01 -3.9360896160e+01  3.0542233577e+02  3.5370911833e+02  1.7100345521e+02  2.294570e-14 9.
       24     2     3     0     0     0 -7.0654816740e+01  6.1908248722e-01 -8.1246459970e+01  1.3428070566e+02  8.0236115701e+01  5.417676e-14 9.
        5     1     3     0   103     0  3.8469799023e+01  3.8741813672e+01  1.3341367227e+01  5.6408205458e+01  4.8000000000e+00 0. 9.
      -24     2     4     0     0     0 -3.3611650096e+01 -6.4286744293e+01  1.9503479699e+02  2.2271695018e+02  7.9383495416e+01  4.499590e-14 9.
       -5     1     4     0     0   102  6.5796667813e+01  2.4925848133e+01  1.1038753877e+02  1.3099216815e+02  4.8000000000e+00 0. 9.
      -15     1     5     0     0     0 -7.1243239124e+00  1.1277640650e+01  1.3920163926e+01  1.9361539786e+01  1.7768200000e+00  3.387148e-02 9.
       16     1     5     0     0     0 -6.3530492827e+01 -1.0658558163e+01 -9.5166623896e+01  1.1491916587e+02  0.0000000000e+00 0. 9.
        1     1     7     0   104     0  1.2685208200e+01 -8.6508217651e+00  7.4276563293e-01  1.5375689418e+01  3.3000000000e-01 0. 9.
       -4     1     7     0     0   104 -4.6296858296e+01 -5.5635922528e+01  1.9429203136e+02  2.0734126076e+02  1.5000000000e+00 0. 9.
#pdf   21   21  6.014733e-02  2.360621e-02  1.781885e+02  1.558995e+00  3.995577e+00
</event>
<event>
    12  9999  1.000000e+00  1.814944e+02  7.878983e-03  1.069960e-01
       21    -1     0     0   101   102  0.0000000000e+00  0.0000000000e+00  3.1663226350e+02  3.1663226350e+02  0.0000000000e+00 0. 9.
       21    -1     0     0   103   101  0.0000000000e+00  0.0000000000e+00 -1.1924362204e+02  1.1924362204e+02  0.0000000000e+00 0. 9.
        6     2     1     2   103     0  4.7112648759e+01  3.6894574734e+01  2.0684681908e+01  1.8230657576e+02  1.7095911846e+02  4.493332e-14 9.
       -6     2     1     2     0   102 -4.7112648759e+01 -3.6894574734e+01  1.7670395955e+02  2.5356930977e+02  1.7173320651e+02  5.456254e-14 9.
       24     2     3     0     0     0 -3.6495448750e+01  4.3860372627e+00 -8.1600085909e+00  8.7955236890e+01  7.9488256075e+01  3.401794e-14 9.
        5     1     3     0   103     0  8.3608097509e+01  3.2508537471e+01  2.8844690499e+01  9.4351338875e+01  4.8000000000e+00 0. 9.
      -24     2     4     0     0     0 -7.7854551141e+01 -4.3991239366e+01  6.5702095508e+01  1.3807090705e+02  8.2159903507e+01  5.121394e-14 9.
       -5     1     4     0     0   102  3.0741902382e+01  7.0966646326e+00  1.1100186404e+02  1.1549840272e+02  4.8000000000e+00 0. 9.
      -15     1     5     0     0     0 -3.7086620242e+01  3.2397033324e+01 -2.5011672349e+01  5.5260528519e+01  1.7768200000e+00  1.021564e-01 9.
       16     1     5     0     0     0  5.9117149292e-01 -2.8010996061e+01  1.6851663758e+01  3.2694708371e+01  0.0000000000e+00 0. 9.
        3     1     7     0   104     0 -2.8500612721e+01 -2.5678561347e+01  7.5327815599e+01  8.4535218940e+01  5.0000000000e-01 0. 9.
       -4     1     7     0     0   104 -4.9353938420e+01 -1.8312678020e+01 -9.6257200915e+00  5.3535688107e+01  1.5000000000e+00 0. 9.
#pdf   21   21  4.871266e-02  1.834517e-02  1.811293e+02  1.966985e+00  4.976575e+00
</event>
<event>
    12  9999  1.000000e+00  1.935082e+02  7.884757e-03  1.061603e-01
       21    -1     0     0   101   102  0.0000000000e+00  0.0000000000e+00  1.2037002429e+03  1.2037002429e+03  0.0000000000e+00 0. 9.
       21    -1     0     0   102   103  0.0000000000e+00  0.0000000000e+00 -3.4586907670e+01  3.4586907670e+01  0.0000000000e+00 0. 9.
        6     2     1     2   101     0 -7.4907689580e+01  5.3127219549e+01  7.8868991618e+02  8.1279510367e+02  1.7369638239e+02  2.902933e-13 9.
       -6     2     1     2     0   103  7.4907689580e+01 -5.3127219549e+01  3.8042341907e+02  4.2549204691e+02  1.6699652930e+02  6.532818e-14 9.
       24     2     3     0     0     0 -1.0277658256e+02  1.4190337013e+01  3.9707071449e+02  4.1823028625e+02  8.0542091121e+01  4.147829e-14 9.
        5     1     3     0   101     0  2.7868892981e+01  3.8936882536e+01  3.9161920169e+02  3.9456481743e+02  4.8000000000e+00 0. 9.
      -24     2     4     0     0     0  1.0272118787e+02 -6.4150588357e+01  3.6216714567e+02  3.9011639335e+02  7.9742200459e+01  1.830846e-14 9.
       -5     1     4     0     0   103 -2.7813498285e+01  1.1023368809e+01  1.8256273396e+01  3.5375653563e+01  4.8000000000e+00 0. 9.
       -3     1     5     0     0   104  1.0753084076e+01  1.3350079288e+01  6.7696462669e+01  6.9834908836e+01  5.0000000000e-01 0. 9.
        4     1     5     0   104     0 -1.1352966664e+02  8.4025772461e-01  3.2937425182e+02  3.4839537741e+02  1.5000000000e+00 0. 9.
        3     1     7     0   105     0  5.5253866315e+01  3.7288669279e+00  2.0626248893e+02  2.1356815898e+02  5.0000000000e-01 0. 9.
       -4     1     7     0     0   105  4.7467321550e+01 -6.7879455285e+01  1.5590465674e+02  1.7654823437e+02  1.5000000000e+00 0. 9.
#pdf   21   21  1.851847e-01  5.321063e-03  1.905820e+02  3.114717e-01  1.287284e+01
</event>
<event>
    12  9999  1.000000e+00  2.144655e+02  7.894037e-03  1.048467e-01
       21    -1     0     0   101   102  0.0000000000e+00  0.0000000000e+00  2.1539762754e+02  2.1539762754e+02  0.0000000000e+00 0. 9.
       21    -1     0     0   103   101  0.0000000000e+00  0.0000000000e+00 -2.2110599173e+02  2.2110599173e+02  0.0000000000e+00 0. 9.
        6     2     1     2   103     0  1.2769442400e+02 -1.1321926315e+01 -4.3237004398e+01  2.1931184706e+02  1.7260995271e+02  3.264785e-16 9.
       -6     2     1     2     0   102 -1.2769442400e+02  1.1321926315e+01  3.7528640207e+01  2.1719177221e+02  1.7125949651e+02  1.965262e-13 9.
       24     2     3     0     0     0  6.6235853629e+01  3.2063809351e+00  4.2797382433e+01  1.1247934591e+02  8.0140614730e+01  1.347765e-13 9.
        5     1     3     0   103     0  6.1458570372e+01 -1.4528307250e+01 -8.6034386830e+01  1.0683250115e+02  4.8000000000e+00 0. 9.
      -24     2     4     0     0     0 -3.8064879606e+00  3.0784357931e+01  1.5246447170e+01  8.9729844299e+01  8.2805946421e+01  1.593909e-14 9.
       -5     1     4     0     0   102 -1.2388793604e+02 -1.9462431616e+01  2.2282193037e+01  1.2746192791e+02  4.8000000000e+00 0. 9.
       -1     1     5     0     0   104  2.5622011648e+01 -3.3863793518e+01  3.8504203097e+01  5.7323001915e+01  3.3000000000e-01 0. 9.
        2     1     5     0   104     0  4.0613841981e+01  3.7070174454e+01  4.2931793352e+00  5.5156343999e+01  3.3000000000e-01 0. 9.
       15     1     7     0     0     0  1.4116784379e+01 -2.3504058227e+01  1.7395306605e+01  3.2518888904e+01  1.7768200000e+00  6.029810e-02 9.
      -16     1     7     0     0     0 -1.7923272340e+01  5.4288416158e+01 -2.1488594349e+00  5.7210955395e+01  0.0000000000e+00 0. 9.
#pdf   21   21  3.313810e-02  3.401631e-02  2.139249e+02  2.892569e+00  2.819370e+00
</event>
<event>
    12  9999  1.000000e+00  1.738407e+02  7.875107e-03  1.075654e-01
       21    -1     0     0   101   102  0.0000000000e+00  0.0000000000e+00  5.8278218745e+01  5.8278218745e+01  0.0000000000e+00 0. 9.
       21    -1     0     0   103   101  0.0000000000e+00  0.0000000000e+00 -8.5089099919e+02  8.5089099919e+02  0.0000000000e+00 0. 9.
        6     2     1     2   103     0  2.2089705391e+01 -1.3075754589e+01 -6.8001036097e+02  7.0180975492e+02  1.7165054801e+02  8.902521e-13 9.
       -6     2     1     2     0   102 -2.2089705391e+01  1.3075754589e+01 -1.1260241948e+02  2.0735946302e+02  1.7221995119e+02  3.608805e-14 9.
       24     2     3     0     0     0  6.5509897134e+01 -3.2812489557e+01 -3.0896660398e+02  3.2768228819e+02  8.0914235624e+01  9.887711e-15 9.
        5     1     3     0   103     0 -4.3420191742e+01  1.9736734969e+01 -3.7104375699e+02  3.7412746673e+02  4.8000000000e+00 0. 9.
      -24     2     4     0     0     0  1.6195591052e+01  6.7234345450e+01 -5.4060340351e+01  1.1876413630e+02  7.9997783059e+01  1.010814e-14 9.
       -5     1     4     0     0   102 -3.8285296444e+01 -5.4158590861e+01 -5.8542079124e+01  8.8595326717e+01  4.8000000000e+00 0. 9.
       -1     1     5     0     0   104  1.3121119562e+01 -4.1556982901e+01 -6.6797948400e+01  7.9757265605e+01  3.3000000000e-01 0. 9.
        2     1     5     0   104     0  5.2388777571e+01  8.7444933441e+00 -2.4216865558e+02  2.4792502258e+02  3.3000000000e-01 0. 9.
       13     1     7     0     0     0  9.8848981288e+00 -6.5268768468e+00  1.3904684687e+01  1.8266437876e+01  1.0566000000e-01  9.626896e+05 9.
      -14     1     7     0     0     0  6.3106929234e+00  7.3761222297e+01 -6.7965025038e+01  1.0049769842e+02  0.0000000000e+00 0. 9.
#pdf   21   21  8.965880e-03  1.309063e-01  1.735593e+02  8.799083e+00  5.634441e-01
</event>
<event>
    12  9999  1.000000e+00  2.535612e+02  7.909197e-03  1.027767e-01
       21    -1     0     0   101   102  0.0000000000e+00  0.0000000000e+00  4.9544051979e+02  4.9544051979e+02  0.0000000000e+00 0. 9.
       21    -1     0     0   102   103  0.0000000000e+00  0.0000000000e+00 -1.6443459012e+02  1.6443459012e+02  0.0000000000e+00 0. 9.
        6     2     1     2   101     0 -1.4568101833e+02 -1.2674446490e+02  1.2006903527e+01  2.4981327934e+02  1.5803604121e+02  1.566597e-13 9.
       -6     2     1     2     0   103  1.4568101833e+02  1.2674446490e+02  3.1899902614e+02  4.1006183056e+02  1.7059662284e+02  5.995228e-14 9.
       24     2     3     0     0     0 -1.3483831751e+02 -1.0843743466e+02  5.7379942478e+01  1.9946981720e+02  8.0967283938e+01  1.205266e-14 9.
        5     1     3     0   101     0 -1.0842700815e+01 -1.8307030238e+01 -4.5373038952e+01  5.0343462146e+01  4.8000000000e+00 0. 9.
      -24     2     4     0     0     0  1.3129988924e+02  1.5925103073e+02  2.6358039532e+02  3.4404851117e+02  7.9336004036e+01  3.457408e-14 9.
       -5     1     4     0     0   103  1.4381129088e+01 -3.2506565833e+01  5.5418630820e+01  6.6013319399e+01  4.8000000000e+00 0. 9.
       -1     1     5     0     0   104 -3.9729283766e+01 -8.1696395131e+01  1.5479023829e+01  9.2154359879e+01  3.3000000000e-01 0. 9.
        2     1     5     0   104     0 -9.5109033749e+01 -2.6741039526e+01  4.1900918649e+01  1.0731545732e+02  3.3000000000e-01 0. 9.
       13     1     7     0     0     0  1.1458473610e+02  7.9842548478e+01  1.7545623107e+02  2.2425296984e+02  1.0566000000e-01  2.053393e+05 9.
      -14     1     7     0     0     0  1.6715153136e+01  7.9408482250e+01  8.8124164249e+01  1.1979554133e+02  0.0000000000e+00 0. 9.
#pdf   21   21  7.622162e-02  2.529763e-02  2.495246e+02  1.142604e+00  3.715884e+00
</event>
<event>
    12  9999  1.000000e+00  1.913955e+02  7.883767e-03  1.063025e-01
        2    -1     0     0   101     0  0.0000000000e+00  0.0000000000e+00  2.8796679780e+02  2.8796679780e+02  0.0000000000e+00 0. 9.
       -2    -1     0     0     0   102  0.0000000000e+00  0.0000000000e+00 -1.2729910195e+02  1.2729910195e+02  0.0000000000e+00 0. 9.
        6     2     1     2   101     0 -6.2980876584e+01 -5.4923386596e+01  8.6073470041e+01  2.1051266788e+02  1.7298488918e+02  1.227639e-14 9.
       -6     2     1     2     0   102  6.2980876584e+01  5.4923386596e+01  7.4594225812e+01  2.0475323187e+02  1.7139550236e+02  1.464596e-14 9.
       24     2     3     0     0     0 -2.8185084356e+01  3.5693699373e+01  6.3029603946e+01  1.1063142244e+02  7.8728276386e+01  3.059576e-14 9.
        5     1     3     0   101     0 -3.4795792228e+01 -9.0617085969e+01  2.3043866095e+01  9.9881245441e+01  4.8000000000e+00 0. 9.
      -24     2     4     0     0     0  3.3603105699e+01  2.4110969773e+01  1.1519261770e+02  1.4573011880e+02  7.9103860698e+01  2.614636e-13 9.
       -5     1     4     0     0   102  2.9377770885e+01  3.0812416823e+01 -4.0598391890e+01  5.9023113071e+01  4.8000000000e+00 0. 9.
      -11     1     5     0     0     0 -2.1103615349e+01  4.7859340108e+01  6.8942334791e+00  5.2758027559e+01  5.1100000000e-04 0. 9.
       12     1     5     0     0     0 -7.0814690072e+00 -1.2165640735e+01  5.6135370466e+01  5.7873394882e+01  0.0000000000e+00 0. 9.
       11     1     7     0     0     0 -1.3149631852e+01 -1.3760852414e+01  6.3874886008e+01  6.6650393395e+01  5.1100000000e-04 0. 9.
      -12     1     7     0     0     0  4.6752737551e+01  3.7871822187e+01  5.1317731694e+01  7.9079725408e+01  0.0000000000e+00 0. 9.
#pdf    2   -2  4.430258e-02  1.958448e-02  1.906819e+02  6.277132e-01  3.393115e-01
</event>
<event>
    12  9999  1.000000e+00  2.192526e+02  7.896033e-03  1.045690e-01
       21    -1     0     0   101   102  0.0000000000e+00  0.0000000000e+00  2.5037138211e+02  2.5037138211e+02  0.0000000000e+00 0. 9.
       21    -1     0     0   102   103  0.0000000000e+00  0.0000000000e+00 -1.9870589366e+02  1.9870589366e+02  0.0000000000e+00 0. 9.
        6     2     1     2   101     0 -4.2454235697e+01  1.3775367611e+02 -1.4676938402e+01  2.2411784526e+02  1.7098233426e+02  1.331536e-13 9.
       -6     2     1     2     0   103  4.2454235697e+01 -1.3775367611e+02  6.6342426852e+01  2.2495943051e+02  1.5945842832e+02  5.001913e-15 9.
       24     2     3     0     0     0 -8.9248821666e+00  1.1347529803e+02 -7.0436264051e+01  1.5450606761e+02  7.7165801036e+01  4.719803e-14 9.
        5     1     3     0   101     0 -3.3529353531e+01  2.4278378083e+01  5.5759325650e+01  6.9611777649e+01  4.8000000000e+00 0. 9.
      -24     2     4     0     0     0  5.7103573640e+01 -2.5698705138e+01  2.6140591695e+01  1.0491715807e+02  8.0018984969e+01  1.145060e-14 9.
       -5     1     4     0     0   103 -1.4649337943e+01 -1.1205497097e+02  4.0201835157e+01  1.2004227244e+02  4.8000000000e+00 0. 9.
       -3     1     5     0     0   104  3.3492663073e+01  3.9997135480e+01 -3.3206843277e+01  6.1842329894e+01  5.0000000000e-01 0. 9.
        4     1     5     0   104     0 -4.2417545240e+01  7.3478162548e+01 -3.7229420775e+01  9.2663737713e+01  1.5000000000e+00 0. 9.
        3     1     7     0   105     0 -3.2027480094e+00  1.5799423615e+00 -2.2485375708e+01  2.2772701496e+01  5.0000000000e-01 0. 9.
       -4     1     7     0     0   105  6.0306321650e+01 -2.7278647500e+01  4.8625967403e+01  8.2144456576e+01  1.5000000000e+00 0. 9.
#pdf   21   21  3.851867e-02  3.057014e-02  2.149545e+02  2.489692e+00  3.126719e+00
</event>
<event>
    12  9999  1.000000e+00  2.036347e+02  7.889358e-03  1.055045e-01
       21    -1     0     0   101   102  0.0000000000e+00  0.0000000000e+00  1.9119750224e+01  1.9119750224e+01  0.0000000000e+00 0. 9.
       21    -1     0     0   103   101  0.0000000000e+00  0.0000000000e+00 -2.2265693528e+03  2.2265693528e+03  0.0000000000e+00 0. 9.
        6     2     1     2   103     0 -2.4665554054e+01  6.4263741468e+01 -1.3548621189e+03  1.3735879769e+03  2.1530060677e+02  2.435513e-14 9.
       -6     2     1     2     0   102  2.4665554054e+01 -6.4263741468e+01 -8.5258748369e+02  8.7210112605e+02  1.7004922430e+02  1.463805e-13 9.
       24     2     3     0     0     0 -3.7384528368e+01  1.1525495106e+02 -1.0446019718e+03  1.0588717959e+03  1.2383413888e+02  4.923483e-14 9.
        5     1     3     0   103     0  1.2718974314e+01 -5.0991209592e+01 -3.1026014703e+02  3.1471618103e+02  4.8000000000e+00 0. 9.
      -24     2     4     0     0     0 -1.5371544989e+00 -7.6786205580e+01 -2.9780052678e+02  3.1653384695e+02  7.4900188950e+01  6.461413e-14 9.
       -5     1     4     0     0   102  2.6202708553e+01  1.2522464112e+01 -5.5478695692e+02  5.5556727910e+02  4.8000000000e+00 0. 9.
       -3     1     5     0     0   104 -6.2908547404e+01  3.0842969000e+01 -6.8658428906e+02  6.9014999098e+02  5.0000000000e-01 0. 9.
        4     1     5     0   104     0  2.5524019035e+01  8.4411982060e+01 -3.5801768277e+02  3.6872180494e+02  1.5000000000e+00 0. 9.
        1     1     7     0   105     0  2.2855486177e+01 -2.3580036702e+00 -1.2097420080e+02  1.2313732005e+02  3.3000000000e-01 0. 9.
       -2     1     7     0     0   105 -2.4392640676e+01 -7.4428201910e+01 -1.7682632598e+02  1.9339652690e+02  3.3000000000e-01 0. 9.
#pdf   21   21  2.941500e-03  3.425491e-01  1.834529e+02  1.917198e+01  6.717894e-02
</event>
<event>
    12  9999  1.000000e+00  2.460510e+02  7.906471e-03  1.031423e-01
       21    -1     0     0   101   102  0.0000000000e+00  0.0000000000e+00  1.7742740214e+02  1.7742740214e+02  0.0000000000e+00 0. 9.
       21    -1     0     0   102   103  0.0000000000e+00  0.0000000000e+00 -4.0251210125e+02  4.0251210125e+02  0.0000000000e+00 0. 9.
        6     2     1     2   101     0 -8.4079492071e+01  1.5495044299e+02 -2.2563833288e+02  3.3373238221e+02  1.7142241656e+02  1.107652e-13 9.
       -6     2     1     2     0   103  8.4079492071e+01 -1.5495044299e+02  5.5363377200e-01  2.4620712118e+02  1.7186808675e+02  3.620345e-13 9.
       24     2     3     0     0     0  3.9972427145e+00  1.2859721977e+02 -1.5983531829e+02  2.2057284742e+02  8.0943370104e+01  2.355639e-13 9.
        5     1     3     0   101     0 -8.8076734785e+01  2.6353223219e+01 -6.5803014584e+01  1.1315953479e+02  4.8000000000e+00 0. 9.
      -24     2     4     0     0     0  1.2265876990e+02 -9.6520814855e+01 -7.2439843133e+00  1.7559391442e+02  8.0120571262e+01  1.249022e-13 9.
       -5     1     4     0     0   103 -3.8579277829e+01 -5.8429628133e+01  7.7976180853e+00  7.0613206763e+01  4.8000000000e+00 0. 9.
       -3     1     5     0     0   104  1.4020861419e+01  6.7157904485e+00  4.0593172336e+00  1.6075274576e+01  5.0000000000e-01 0. 9.
        4     1     5     0   104     0 -1.0023618704e+01  1.2188142932e+02 -1.6389463553e+02  2.0449757285e+02  1.5000000000e+00 0. 9.
        3     1     7     0   105     0  4.9322897911e+00 -3.4303768772e+01  1.9513729314e+01  3.9775767325e+01  5.0000000000e-01 0. 9.
       -2     1     7     0     0   105  1.1772648011e+02 -6.2217046083e+01 -2.6757713627e+01  1.3581814710e+02  3.3000000000e-01 0. 9.
#pdf   21   21  2.729652e-02  6.192494e-02  2.458956e+02  3.463666e+00  1.471635e+00
</event>
<event>
    12  9999  1.000000e+00  3.758696e+02  7.945064e-03  9.822222e-02
       21    -1     0     0   101   102  0.0000000000e+00  0.0000000000e+00  2.0341415360e+02  2.0341415360e+02  0.0000000000e+00 0. 9.
       21    -1     0     0   102   103  0.0000000000e+00  0.0000000000e+00 -1.0498352216e+03  1.0498352216e+03  0.0000000000e+00 0. 9.
        6     2     1     2   101     0 -2.4598032707e+02  2.2709015427e+02 -5.8746471825e+01  3.8053395209e+02  1.7111014368e+02  5.802345e-14 9.
       -6     2     1     2     0   103  2.4598032707e+02 -2.2709015427e+02 -7.8767459614e+02  8.7271542308e+02  1.7065954648e+02  2.267278e-13 9.
       24     2     3     0     0     0 -3.2222312860e+01  7.0727547855e+01 -1.0044493335e+01  1.1120761466e+02  7.8902333554e+01  1.895898e-13 9.
        5     1     3     0   101     0 -2.1375801421e+02  1.5636260641e+02 -4.8701978490e+01  2.6932633743e+02  4.8000000000e+00 0. 9.
      -24     2     4     0     0     0  2.3522229302e+02 -1.4571287234e+02 -5.4217815046e+02  6.1381478161e+02  7.9054860632e+01  3.039124e-14 9.
       -5     1     4     0     0   103  1.0758034052e+01 -8.1377281930e+01 -2.4549644568e+02  2.5890064147e+02  4.8000000000e+00 0. 9.
       -1     1     5     0     0   104 -7.3225697495e+00  8.1410289387e+01  1.5020642404e+00  8.1753411811e+01  3.3000000000e-01 0. 9.
        2     1     5     0   104     0 -2.4899743111e+01 -1.0682741532e+01 -1.1546557575e+01  2.9454202849e+01  3.3000000000e-01 0. 9.
        1     1     7     0   105     0  1.2032057179e+02 -2.9700154650e+01 -2.1523552900e+02  2.4836582097e+02  3.3000000000e-01 0. 9.
       -2     1     7     0     0   105  1.1490172123e+02 -1.1601271769e+02 -3.2694262145e+02  3.6544896064e+02  3.3000000000e-01 0. 9.
#pdf   21   21  3.129449e-02  1.615131e-01  3.757671e+02  2.986289e+00  3.598065e-01
</event>
<event>
    12  9999  1.000000e+00  2.013986e+02  7.888361e-03  1.056458e-01
       21    -1     0     0   101   102  0.0000000000e+00  0.0000000000e+00  4.5502196056e+02  4.5502196056e+02  0.0000000000e+00 0. 9.
       21    -1     0     0   102   103  0.0000000000e+00  0.0000000000e+00 -1.1507459412e+02  1.1507459412e+02  0.0000000000e+00 0. 9.
        6     2     1     2   101     0  6.9060999371e+01  6.8124654794e+01  3.0795195903e+02  3.7033776509e+02  1.8139807317e+02  7.565437e-14 9.
       -6     2     1     2     0   103 -6.9060999371e+01 -6.8124654794e+01  3.1995407402e+01  1.9975878959e+02  1.7166676353e+02  8.470314e-14 9.
       24     2     3     0     0     0  2.5662483822e+01  9.1433244795e+01  2.9175984267e+02  3.1826141583e+02  8.4545382363e+01  1.642921e-14 9.
        5     1     3     0   101     0  4.3398515549e+01 -2.3308590001e+01  1.6192116360e+01  5.2076349257e+01  4.8000000000e+00 0. 9.
      -24     2     4     0     0     0 -3.2766818325e+01 -5.7605049175e+01 -4.5178043451e+01  1.1369653772e+02  8.0584371976e+01  8.696733e-14 9.
       -5     1     4     0     0   103 -3.6294181047e+01 -1.0519605619e+01  7.7173450853e+01  8.6062251869e+01  4.8000000000e+00 0. 9.
       -3     1     5     0     0   104  1.1157756431e+01  2.3302507916e+00 -1.4165452610e+00  1.1497051700e+01  5.0000000000e-01 0. 9.
        4     1     5     0   104     0  1.4504727392e+01  8.9102994003e+01  2.9317638794e+02  3.0676436413e+02  1.5000000000e+00 0. 9.
        3     1     7     0   105     0 -1.3596028116e+01 -6.9956482570e+01 -1.0314557524e+01  7.2009732197e+01  5.0000000000e-01 0. 9.
       -4     1     7     0     0   105 -1.9170790208e+01  1.2351433395e+01 -3.4863485927e+01  4.1686805528e+01  1.5000000000e+00 0. 9.
#pdf   21   21  7.000338e-02  1.770378e-02  1.971798e+02  1.294550e+00  5.123849e+00
</event>
<event>
    12  9999  1.000000e+00  1.678568e+02  7.871958e-03  1.080602e-01
        2    -1     0     0   101     0  0.0000000000e+00  0.0000000000e+00  2.1696703369e+03  2.1696703369e+03  0.0000000000e+00 0. 9.
       -2    -1     0     0     0   102  0.0000000000e+00  0.0000000000e+00 -1.3096046823e+01  1.3096046823e+01  0.0000000000e+00 0. 9.
        6     2     1     2   101     0  1.7354363157e+01 -1.1148090955e+01  9.9745103373e+02  1.0119392840e+03  1.6937265400e+02  9.537975e-14 9.
       -6     2     1     2     0   102 -1.7354363157e+01  1.1148090955e+01  1.1591232564e+03  1.1708270998e+03  1.6384114329e+02  3.645522e-14 9.
       24     2     3     0     0     0  6.0857382344e+01  1.8414880280e+01  4.3211197150e+02  4.4413845867e+02  8.0594576435e+01  3.166017e-14 9.
        5     1     3     0   101     0 -4.3503019187e+01 -2.9562971235e+01  5.6533906223e+02  5.6780082532e+02  4.8000000000e+00 0. 9.
      -24     2     4     0     0     0  1.1113026141e+01  3.5135022975e+01  1.0769595949e+03  1.0804961946e+03  7.9196517108e+01  1.461235e-14 9.
       -5     1     4     0     0   102 -2.8467389298e+01 -2.3986932020e+01  8.2163661506e+01  9.0330905194e+01  4.8000000000e+00 0. 9.
       -1     1     5     0     0   103  1.8166992234e+01  1.2709563759e+00  3.4624477294e+02  3.4672353053e+02  3.3000000000e-01 0. 9.
        2     1     5     0   103     0  4.2690390110e+01  1.7143923904e+01  8.5867198562e+01  9.7414928135e+01  3.3000000000e-01 0. 9.
       11     1     7     0     0     0 -7.1345018492e-01 -2.3900532031e+01  1.9059307285e+02  1.9208712570e+02  5.1100000000e-04 0. 9.
      -12     1     7     0     0     0  1.1826476326e+01  5.9035555006e+01  8.8636652201e+02  8.8840906886e+02  0.0000000000e+00 0. 9.
#pdf    2   -2  3.337954e-01  2.014776e-03  1.651344e+02  2.668332e-01  1.163229e+00
</event>
<event>
    12  9999  1.000000e+00  1.756238e+02  7.876025e-03  1.074300e-01
       21    -1     0     0   101   102  0.0000000000e+00  0.0000000000e+00  1.8078368219e+02  1.8078368219e+02  0.0000000000e+00 0. 9.
       21    -1     0     0   103   101  0.0000000000e+00  0.0000000000e+00 -1.7566508346e+02  1.7566508346e+02  0.0000000000e+00 0. 9.
        6     2     1     2   103     0 -6.0586992783e+00  3.7201720191e+01 -2.7644648116e+01  1.7866344948e+02  1.7244049927e+02  1.374422e-14 9.
       -6     2     1     2     0   102  6.0586992783e+00 -3.7201720191e+01  3.2763246845e+01  1.7778531617e+02  1.7062682228e+02  1.200063e-14 9.
       24     2     3     0     0     0 -1.2972754406e+01 -3.9212044536e+01 -4.1124752209e+01  1.0061461346e+02  8.2013281876e+01  1.007743e-13 9.
        5     1     3     0   103     0  6.9140551280e+00  7.6413764726e+01  1.3480104093e+01  7.8048836022e+01  4.8000000000e+00 0. 9.
      -24     2     4     0     0     0  1.6528445191e+01 -8.2319304519e+01  5.1719061494e+01  1.2751032334e+02  8.0835412040e+01  1.358429e-13 9.
       -5     1     4     0     0   102 -1.0469745912e+01  4.5117584328e+01 -1.8955814649e+01  5.0274992830e+01  4.8000000000e+00 0. 9.
       -1     1     5     0     0   104  1.8995347070e+00 -3.1950940612e+01  1.9694679430e+01  3.7582710598e+01  3.3000000000e-01 0. 9.
        2     1     5     0   104     0 -1.4872289113e+01 -7.2611039236e+00 -6.0819431638e+01  6.3031902862e+01  3.3000000000e-01 0. 9.
       13     1     7     0     0     0  3.4589611600e+00 -4.4541663000e+00 -2.0039874149e+01  2.0818542929e+01  1.0566000000e-01  1.614894e+04 9.
      -14     1     7     0     0     0  1.3069484031e+01 -7.7865138219e+01  7.1758935643e+01  1.0669178041e+02  0.0000000000e+00 0. 9.
#pdf   21   21  2.781287e-02  2.702540e-02  1.747403e+02  3.443243e+00  3.535890e+00
</event>
<event>
    12  9999  1.000000e+00  1.809998e+02  7.878738e-03  1.070319e-01
       21    -1     0     0   101   102  0.0000000000e+00  0.0000000000e+00  3.0203065718e+02  3.0203065718e+02  0.0000000000e+00 0. 9.
       21    -1     0     0   103   101  0.0000000000e+00  0.0000000000e+00 -1.1080687645e+02  1.1080687645e+02  0.0000000000e+00 0. 9.
        6     2     1     2   103     0 -5.5785052250e+01  2.8555184293e+01  6.5618542478e+01  1.9250947816e+02  1.6978437932e+02  8.924796e-14 9.
       -6     2     1     2     0   102  5.5785052250e+01 -2.8555184293e+01  1.2560523826e+02  2.2032805547e+02  1.6982463174e+02  2.852957e-13 9.
       24     2     3     0     0     0 -6.8600367046e+01  7.5190148547e+01  3.2720119031e+01  1.3382048047e+02  8.0484445748e+01  2.522990e-14 9.
        5     1     3     0   103     0  1.2815314796e+01 -4.6634964254e+01  3.2898423448e+01  5.8688997688e+01  4.8000000000e+00 0. 9.
      -24     2     4     0     0     0  2.0025434953e+00 -8.7830123232e-02  6.1187533355e-01  8.1226188923e+01  8.1199147046e+01  1.160178e-13 9.
       -5     1     4     0     0   102  5.3782508755e+01 -2.8467354170e+01  1.2499336293e+02  1.3910186655e+02  4.8000000000e+00 0. 9.
      -13     1     5     0     0     0 -1.5366090829e+01  4.9681659327e+01  5.0175767724e+01  7.2263426791e+01  1.0566000000e-01  9.404399e+04 9.
       14     1     5     0     0     0 -5.3234276218e+01  2.5508489220e+01 -1.7455648694e+01  6.1557053682e+01  0.0000000000e+00 0. 9.
        1     1     7     0   104     0  7.3119766777e+00  3.9438919812e+01 -6.7297435915e+00  4.0672985478e+01  3.3000000000e-01 0. 9.
       -2     1     7     0     0   104 -5.3094331824e+00 -3.9526749936e+01  7.3416189251e+00  4.0553203445e+01  3.3000000000e-01 0. 9.
#pdf   21   21  4.646625e-02  1.704721e-02  1.809810e+02  2.068685e+00  5.294295e+00
</event>
<event>
    12  9999  1.000000e+00  1.718792e+02  7.874086e-03  1.077164e-01
       21    -1     0     0   101   102  0.0000000000e+00  0.0000000000e+00  8.6637912280e+02  8.6637912280e+02  0.0000000000e+00 0. 9.
       21    -1     0     0   103   101  0.0000000000e+00  0.0000000000e+00 -4.0771594889e+01  4.0771594889e+01  0.0000000000e+00 0. 9.
        6     2     1     2   103     0  8.5206787463e+00 -4.5484085785e+00  2.2868240905e+02  2.8588619701e+02  1.7129501874e+02  1.949686e-13 9.
       -6     2     1     2     0   102 -8.5206787463e+00  4.5484085785e+00  5.9692511886e+02  6.2126452068e+02  1.7192067106e+02  7.567199e-14 9.
       24     2     3     0     0     0 -3.8203622375e+01  3.5802709139e+01  8.3811897306e+01  1.2833659153e+02  8.1880985887e+01  3.646996e-14 9.
        5     1     3     0   103     0  4.6724301122e+01 -4.0351117717e+01  1.4487051174e+02  1.5754960548e+02  4.8000000000e+00 0. 9.
      -24     2     4     0     0     0 -1.8516494306e+01  5.0759300948e+01  5.2661585556e+02  5.3640112805e+02  8.6501697388e+01  9.438602e-14 9.
       -5     1     4     0     0   102  9.9958155598e+00 -4.6210892369e+01  7.0309263301e+01  8.4863392627e+01  4.8000000000e+00 0. 9.
       -1     1     5     0     0   104  3.3836576372e+00  1.4027141027e+01  7.9940186301e+01  8.1232703452e+01  3.3000000000e-01 0. 9.
        2     1     5     0   104     0 -4.1587280013e+01  2.1775568112e+01  3.8717110056e+00  4.7103888073e+01  3.3000000000e-01 0. 9.
        1     1     7     0   105     0  3.2979475824e+01  3.4632993575e+01  2.3064582618e+02  2.3555189684e+02  3.3000000000e-01 0. 9.
       -2     1     7     0     0   105 -5.1495970131e+01  1.6126307372e+01  2.9597002938e+02  3.0084923121e+02  3.3000000000e-01 0. 9.
#pdf   21   21  1.332891e-01  6.272553e-03  1.715671e+02  5.489168e-01  1.141654e+01
</event>
<event>
    12  9999  1.000000e+00  2.368933e+02  7.903035e-03  1.036072e-01
       21    -1     0     0   101   102  0.0000000000e+00  0.0000000000e+00  5.0016410934e+01  5.0016410934e+01  0.0000000000e+00 0. 9.
       21    -1     0     0   103   101  0.0000000000e+00  0.0000000000e+00 -1.2087254119e+03  1.2087254119e+03  0.0000000000e+00 0. 9.
        6     2     1     2   103     0  1.1486626886e+01 -1.6232026606e+02 -7.4867341692e+02  7.8535628638e+02  1.7260590946e+02  1.493660e-13 9.
       -6     2     1     2     0   102 -1.1486626886e+01  1.6232026606e+02 -4.1003558400e+02  4.7338553641e+02  1.7171160288e+02  5.399355e-14 9.
       24     2     3     0     0     0 -5.7826706896e+01 -9.1888745955e+01 -4.8490728851e+02  5.0364624439e+02  8.2079177440e+01  1.968016e-13 9.
        5     1     3     0   103     0  6.9313333781e+01 -7.0431520102e+01 -2.6376612840e+02  2.8171004199e+02  4.8000000000e+00 0. 9.
      -24     2     4     0     0     0  6.4986006270e+00  4.8954591860e+01 -2.9796617901e+02  3.1289305674e+02  8.1727824211e+01  7.367895e-14 9.
       -5     1     4     0     0   102 -1.7985227513e+01  1.1336567420e+02 -1.1206940500e+02  1.6049247967e+02  4.8000000000e+00 0. 9.
       -1     1     5     0     0   104 -1.2440633896e+01  3.0705525587e+00 -7.6626680200e+00  1.4933956138e+01  3.3000000000e-01 0. 9.
        2     1     5     0   104     0 -4.5386073000e+01 -9.4959298514e+01 -4.7724462049e+02  4.8871228825e+02  3.3000000000e-01 0. 9.
        1     1     7     0   105     0  4.7657464325e-01 -1.6986109135e+01 -1.4782456700e+02  1.4879840905e+02  3.3000000000e-01 0. 9.
       -2     1     7     0     0   105  6.0220259838e+00  6.5940700996e+01 -1.5014161200e+02  1.6409464769e+02  3.3000000000e-01 0. 9.
#pdf   21   21  7.694832e-03  1.859578e-01  2.365686e+02  9.918943e+00  2.982517e-01
</event>
<event>
    12  9999  1.000000e+00  1.862789e+02  7.881326e-03  1.066551e-01
        4    -1     0     0   101     0  0.0000000000e+00  0.0000000000e+00  6.2368512262e+02  6.2368512262e+02  0.0000000000e+00 0. 9.
       -4    -1     0     0     0   102  0.0000000000e+00  0.0000000000e+00 -6.7007612857e+01  6.7007612857e+01  0.0000000000e+00 0. 9.
        6     2     1     2   101     0 -7.0837693388e+01 -2.0611716833e+01  1.3672874622e+02  2.3149505222e+02  1.7161697901e+02  6.644739e-14 9.
       -6     2     1     2     0   102  7.0837693388e+01  2.0611716833e+01  4.1994876354e+02  4.5919768325e+02  1.7047793590e+02  1.977577e-13 9.
       24     2     3     0     0     0 -5.6809841833e+01 -1.5586231325e+01  1.6833193532e+02  1.9622696913e+02  8.1847994669e+01  4.043778e-15 9.
        5     1     3     0   101     0 -1.4027851555e+01 -5.0254855078e+00 -3.1603189096e+01  3.5268083091e+01  4.8000000000e+00 0. 9.
      -24     2     4     0     0     0  8.2279472160e+01  6.5856266882e+01  2.6907596837e+02  3.0119887334e+02  8.4923054126e+01  3.697413e-14 9.
       -5     1     4     0     0   102 -1.1441778772e+01 -4.5244550048e+01  1.5087279517e+02  1.5799880991e+02  4.8000000000e+00 0. 9.
       -1     1     5     0     0   103 -4.0944563143e+01 -4.7519569880e+01  1.2694511157e+02  1.4159709398e+02  3.3000000000e-01 0. 9.
        2     1     5     0   103     0 -1.5865278689e+01  3.1933338555e+01  4.1386823748e+01  5.4629875152e+01  3.3000000000e-01 0. 9.
        1     1     7     0   104     0  3.4556431688e+01 -4.1508312904e+00  1.5637634507e+02  1.6020314157e+02  3.3000000000e-01 0. 9.
       -2     1     7     0     0   104  4.7723040472e+01  7.0007098172e+01  1.1269962330e+02  1.4099573178e+02  3.3000000000e-01 0. 9.
#pdf    4   -4  9.595156e-02  1.030886e-02  1.857567e+02  3.793127e-02  3.112347e-01
</event>
<event>
    12  9999  1.000000e+00  3.176491e+02  7.929690e-03  1.001184e-01
       21    -1     0     0   101   102  0.0000000000e+00  0.0000000000e+00  8.0033699253e+02  8.0033699253e+02  0.0000000000e+00 0. 9.
       21    -1     0     0   103   101  0.0000000000e+00  0.0000000000e+00 -1.2728664739e+02  1.2728664739e+02  0.0000000000e+00 0. 9.
        6     2     1     2   103     0  2.7138500656e+02 -3.3392644104e+00  3.8490532156e+02  5.0108833434e+02  1.7110359368e+02  1.453646e-14 9.
       -6     2     1     2     0   102 -2.7138500656e+02  3.3392644104e+00  2.8814502358e+02  4.2653530558e+02  1.5888310112e+02  1.019183e-13 9.
       24     2     3     0     0     0  1.4466683554e+02 -1.7508989318e+01  1.0578537239e+02  1.9418564292e+02  7.2680539998e+01  9.178102e-14 9.
        5     1     3     0   103     0  1.2671817102e+02  1.4169724908e+01  2.7911994918e+02  3.0690269142e+02  4.8000000000e+00 0. 9.
      -24     2     4     0     0     0 -1.7234772722e+02  5.6743983823e+01  1.6936562106e+02  2.6285258439e+02  8.6505194896e+01  4.455383e-14 9.
       -5     1     4     0     0   102 -9.9037279342e+01 -5.3404719413e+01  1.1877940252e+02  1.6368272119e+02  4.8000000000e+00 0. 9.
      -11     1     5     0     0     0  1.2327052828e+02  8.5471948532e+00  1.0205983532e+02  1.6026505442e+02  5.1100000000e-04 0. 9.
       12     1     5     0     0     0  2.1396307258e+01 -2.6056184172e+01  3.7255370659e+00  3.3920588502e+01  0.0000000000e+00 0. 9.
        3     1     7     0   104     0 -3.1360875598e+01  2.3440748681e+01 -1.0600785043e+00  3.9170741420e+01  5.0000000000e-01 0. 9.
       -4     1     7     0     0   104 -1.4098685162e+02  3.3303235143e+01  1.7042569956e+02  2.2368184297e+02  1.5000000000e+00 0. 9.
#pdf   21   21  1.231288e-01  1.958256e-02  3.144914e+02  5.751350e-01  4.654572e+00
</event>
<event>
    12  9999  1.000000e+00  2.938849e+02  7.922607e-03  1.010199e-01
       21    -1     0     0   101   102  0.0000000000e+00  0.0000000000e+00  3.4573924689e+02  3.4573924689e+02  0.0000000000e+00 0. 9.
       21    -1     0     0   103   101  0.0000000000e+00  0.0000000000e+00 -3.0562154001e+02  3.0562154001e+02  0.0000000000e+00 0. 9.
        6     2     1     2   103     0  8.0040577495e+01 -2.2544699205e+02 -1.1913167082e+02  3.1689967679e+02  1.7029447991e+02  2.526897e-14 9.
       -6     2     1     2     0   102 -8.0040577495e+01  2.2544699205e+02  1.5924937770e+02  3.3446111011e+02  1.7108778334e+02  7.501487e-15 9.
       24     2     3     0     0     0 -2.5661683346e+00 -7.8428996271e+01 -6.0532689475e+00  1.1380381147e+02  8.2200807567e+01  1.690925e-13 9.
        5     1     3     0   103     0  8.2606745829e+01 -1.4701799578e+02 -1.1307840187e+02  2.0309586531e+02  4.8000000000e+00 0. 9.
      -24     2     4     0     0     0  2.0651415057e+01  1.3556371779e+02  8.5427560155e+01  1.8054366112e+02  8.0586245812e+01  9.949357e-14 9.
       -5     1     4     0     0   102 -1.0069199255e+02  8.9883274260e+01  7.3821817543e+01  1.5391744898e+02  4.8000000000e+00 0. 9.
       -1     1     5     0     0   104  2.7885072661e+00 -2.6366652123e+01  3.7353598251e+01  4.5808037714e+01  3.3000000000e-01 0. 9.
        2     1     5     0   104     0 -5.3546756007e+00 -5.2062344148e+01 -4.3406867198e+01  6.7995773758e+01  3.3000000000e-01 0. 9.
       11     1     7     0     0     0 -1.6457147984e+01  6.5509703831e+00 -5.3323688990e+00  1.8498299680e+01  5.1100000000e-04 0. 9.
      -12     1     7     0     0     0  3.7108563041e+01  1.2901274740e+02  9.0759929054e+01  1.6204536144e+02  0.0000000000e+00 0. 9.
#pdf   21   21  5.319065e-02  4.701870e-02  2.936546e+02  1.730498e+00  1.983653e+00
</event>
<event>
    12  9999  1.000000e+00  1.855352e+02  7.880966e-03  1.067074e-01
       21    -1     0     0   101   102  0.0000000000e+00  0.0000000000e+00  2.9938892701e+01  2.9938892701e+01  0.0000000000e+00 0. 9.
       21    -1     0     0   102   103  0.0000000000e+00  0.0000000000e+00 -1.1703182925e+03  1.1703182925e+03  0.0000000000e+00 0. 9.
        6     2     1     2   101     0 -1.0886510932e+01 -7.0511115200e+01 -6.5068474564e+02  6.7671169768e+02  1.7163260205e+02  4.295801e-14 9.
       -6     2     1     2     0   103  1.0886510932e+01  7.0511115200e+01 -4.8969465414e+02  5.2354548750e+02  1.7090549932e+02  2.497375e-14 9.
       24     2     3     0     0     0 -2.9905426770e+01  1.5532400016e+01 -4.3394931631e+02  4.4269782630e+02  8.0831715857e+01  8.195040e-14 9.
        5     1     3     0   101     0  1.9018915838e+01 -8.6043515217e+01 -2.1673542933e+02  2.3401387138e+02  4.8000000000e+00 0. 9.
      -24     2     4     0     0     0  2.0030279606e+01  2.2677192491e+01 -1.0495935997e+02  1.3571049779e+02  8.0532011046e+01  1.261489e-14 9.
       -5     1     4     0     0   103 -9.1437686733e+00  4.7833922709e+01 -3.8473529416e+02  3.8783498971e+02  4.8000000000e+00 0. 9.
       -3     1     5     0     0   104 -4.1520446395e+01  2.5627045761e+01 -1.3849811722e+02  1.4684233524e+02  5.0000000000e-01 0. 9.
        4     1     5     0   104     0  1.1615019625e+01 -1.0094645744e+01 -2.9545119909e+02  2.9585549107e+02  1.5000000000e+00 0. 9.
        3     1     7     0   105     0 -7.3554116391e+00 -2.4779590203e+01 -1.3707885322e+01  2.9262369881e+01  5.0000000000e-01 0. 9.
       -4     1     7     0     0   105  2.7385691245e+01  4.7456782694e+01 -9.1251474652e+01  1.0644812791e+02  1.5000000000e+00 0. 9.
#pdf   21   21  4.605983e-03  1.800490e-01  1.852000e+02  1.421121e+01  3.294646e-01
</event>
<event>
    12  9999  1.000000e+00  2.912847e+02  7.921798e-03  1.011239e-01
       21    -1     0     0   101   102  0.0000000000e+00  0.0000000000e+00  1.0050898107e+02  1.0050898107e+02  0.0000000000e+00 0. 9.
       21    -1     0     0   103   101  0.0000000000e+00  0.0000000000e+00 -8.6879628914e+02  8.6879628914e+02  0.0000000000e+00 0. 9.
        6     2     1     2   103     0 -2.1744428302e+02  5.5760786874e+01 -2.9223279181e+02  4.0629074043e+02  1.7111656722e+02  6.187234e-15 9.
       -6     2     1     2     0   102  2.1744428302e+02 -5.5760786874e+01 -4.7605451625e+02  5.6301452977e+02  1.9991542391e+02  4.185164e-14 9.
       24     2     3     0     0     0 -4.1873674689e+01 -5.5532089569e+00 -1.3674421538e+02  1.6383624574e+02  7.9743916482e+01  1.226902e-13 9.
        5     1     3     0   103     0 -1.7557060834e+02  6.1313995830e+01 -1.5548857643e+02  2.4245449469e+02  4.8000000000e+00 0. 9.
      -24     2     4     0     0     0  1.3477818255e+02  4.3106327734e+01 -2.0033820098e+02  2.5862839831e+02  8.2036209444e+01  2.712983e-14 9.
       -5     1     4     0     0   102  8.2666100478e+01 -9.8867114607e+01 -2.7571631527e+02  3.0438613146e+02  4.8000000000e+00 0. 9.
      -15     1     5     0     0     0 -1.6744677495e+01  3.6962475996e+01 -6.7642523665e+01  7.8900424291e+01  1.7768200000e+00  5.040442e-02 9.
       16     1     5     0     0     0 -2.5128997193e+01 -4.2515684953e+01 -6.9101691716e+01  8.4935821448e+01  0.0000000000e+00 0. 9.
        1     1     7     0   104     0  3.7149654156e+01  4.7286134931e+01 -4.4989672649e+01  7.5101630513e+01  3.3000000000e-01 0. 9.
       -2     1     7     0     0   104  9.7628528391e+01 -4.1798071974e+00 -1.5534852833e+02  1.8352676780e+02  3.3000000000e-01 0. 9.
#pdf   21   21  1.546292e-02  1.336610e-01  2.822626e+02  5.716649e+00  5.129636e-01
</event>
<event>
    12  9999  1.000000e+00  1.976199e+02  7.886653e-03  1.058890e-01
       21    -1     0     0   101   102  0.0000000000e+00  0.0000000000e+00  2.2410750484e+02  2.2410750484e+02  0.0000000000e+00 0. 9.
       21    -1     0     0   102   103  0.0000000000e+00  0.0000000000e+00 -2.3866944724e+02  2.3866944724e+02  0.0000000000e+00 0. 9.
        6     2     1     2   101     0  4.9836284652e+01  8.3717711520e+01  1.1290580384e+02  2.2801875576e+02  1.7248919371e+02  3.440466e-14 9.
       -6     2     1     2     0   103 -4.9836284652e+01 -8.3717711520e+01 -1.2746774624e+02  2.3475819632e+02  1.7137991108e+02  5.933347e-14 9.
       24     2     3     0     0     0  6.6201222469e+01  1.1326895492e+02  1.1841300800e+02  1.9345784613e+02  7.8688244107e+01  5.145643e-14 9.
        5     1     3     0   101     0 -1.6364937816e+01 -2.9551243402e+01 -5.5072041634e+00  3.4560909624e+01  4.8000000000e+00 0. 9.
      -24     2     4     0     0     0 -4.6736440765e+01 -3.1816959282e+01 -1.4716473157e+02  1.7895220788e+02  8.4674793734e+01  1.067886e-13 9.
       -5     1     4     0     0   103 -3.0998438869e+00 -5.1900752238e+01  1.9696985334e+01  5.5805988444e+01  4.8000000000e+00 0. 9.
      -11     1     5     0     0     0  2.9169126740e+01  3.3100838280e+01 -1.9642251413e+00  4.4162898799e+01  5.1100000000e-04 0. 9.
       12     1     5     0     0     0  3.7032095728e+01  8.0168116641e+01  1.2037723315e+02  1.4929494733e+02  0.0000000000e+00 0. 9.
        3     1     7     0   104     0  1.2073820966e+01 -2.4107124780e+01 -9.8772844374e+01  1.0238776980e+02  5.0000000000e-01 0. 9.
       -4     1     7     0     0   104 -5.8810261731e+01 -7.7098345013e+00 -4.8391887196e+01  7.6564438085e+01  1.5000000000e+00 0. 9.
#pdf   21   21  3.447808e-02  3.671838e-02  1.971380e+02  2.792548e+00  2.623807e+00
</event>
<event>
    12  9999  1.000000e+00  2.028758e+02  7.889021e-03  1.055523e-01
       -2    -1     0     0     0   101  0.0000000000e+00  0.0000000000e+00  7.1841310353e+02  7.1841310353e+02  0.0000000000e+00 0. 9.
        2    -1     0     0   102     0  0.0000000000e+00  0.0000000000e+00 -6.8337939819e+01  6.8337939819e+01  0.0000000000e+00 0. 9.
       -6     2     1     2     0   101 -1.0876356854e+02  3.1529546613e+01  1.6852633565e+02  2.6468032950e+02  1.6979671630e+02  4.631032e-15 9.
        6     2     1     2   102     0  1.0876356854e+02 -3.1529546613e+01  4.8154882806e+02  5.2207071385e+02  1.6686800261e+02  3.123073e-13 9.
      -24     2     3     0     0     0 -5.3669812198e+01  8.4166782094e+01  1.0452854802e+02  1.6505725301e+02  7.9706859629e+01  1.195326e-13 9.
       -5     1     3     0     0   101 -5.5093756345e+01 -5.2637235481e+01  6.3997787629e+01  9.9623076487e+01  4.8000000000e+00 0. 9.
       24     2     4     0     0     0  9.9246245807e+01  3.4418446313e+01  2.8797245204e+02  3.1729139224e+02  8.1922205189e+01  1.107138e-13 9.
        5     1     4     0   102     0  9.5173227362e+00 -6.5947992927e+01  1.9357637603e+02  2.0477932161e+02  4.8000000000e+00 0. 9.
       11     1     5     0     0     0 -1.2884304481e+00  1.9544762525e+01 -1.1177588349e+01  2.2552079211e+01  5.1100000000e-04 0. 9.
      -12     1     5     0     0     0 -5.2381381750e+01  6.4622019570e+01  1.1570613637e+02  1.4250517380e+02  0.0000000000e+00 0. 9.
      -15     1     7     0     0     0  1.1359181489e+02  2.6664289498e+01  2.4642329410e+02  2.7265671037e+02  1.7768200000e+00  5.234605e-01 9.
       16     1     7     0     0     0 -1.4345569085e+01  7.7541568157e+00  4.1549157936e+01  4.4634681868e+01  0.0000000000e+00 0. 9.
#pdf   -2    2  1.105251e-01  1.051353e-02  2.016645e+02  6.148176e-02  7.678895e-01
</event>
<event>
    12  9999  1.000000e+00  2.017965e+02  7.888539e-03  1.056205e-01
        1    -1     0     0   101     0  0.0000000000e+00  0.0000000000e+00  3.1819396345e+02  3.1819396345e+02  0.0000000000e+00 0. 9.
       -1    -1     0     0     0   102  0.0000000000e+00  0.0000000000e+00 -2.4486761314e+02  2.4486761314e+02  0.0000000000e+00 0. 9.
        6     2     1     2   101     0 -4.8508542185e+01 -9.5166976223e+01  2.3121130831e+02  3.0713741177e+02  1.7165339667e+02  6.278391e-15 9.
       -6     2     1     2     0   102  4.8508542185e+01  9.5166976223e+01 -1.5788495799e+02  2.5592416482e+02  1.7076207469e+02  1.837795e-13 9.
       24     2     3     0     0     0 -8.6096684476e+01 -2.4984331357e+01  1.5291513980e+02  1.9537068110e+02  8.2157210045e+01  1.627239e-15 9.
        5     1     3     0   101     0  3.7588142291e+01 -7.0182644866e+01  7.8296168507e+01  1.1176673067e+02  4.8000000000e+00 0. 9.
      -24     2     4     0     0     0  8.0296570277e+01  1.0066332393e+02 -7.8597077882e+01  1.7019029462e+02  7.8781925267e+01  3.193884e-14 9.
       -5     1     4     0     0   102 -3.1788028091e+01 -5.4963477038e+00 -7.9287880109e+01  8.5733870205e+01  4.8000000000e+00 0. 9.
      -13     1     5     0     0     0 -3.7281592149e+01 -1.5539120371e+01  6.7120227586e+00  4.0944398745e+01  1.0566000000e-01  5.197880e+05 9.
       14     1     5     0     0     0 -4.8815092327e+01 -9.4452109862e+00  1.4620311704e+02  1.5442628235e+02  0.0000000000e+00 0. 9.
       13     1     7     0     0     0 -1.4199605138e+01  2.1919643968e+01 -2.4519252690e+01  3.5823239583e+01  1.0566000000e-01  2.354107e+05 9.
      -14     1     7     0     0     0  9.4496175414e+01  7.8743679960e+01 -5.4077825193e+01  1.3436705504e+02  0.0000000000e+00 0. 9.
#pdf    1   -1  4.895292e-02  3.767194e-02  2.014188e+02  4.354569e-01  2.378635e-01
</event>
<event>
    12  9999  1.000000e+00  1.820620e+02  7.879264e-03  1.069550e-01
       21    -1     0     0   101   102  0.0000000000e+00  0.0000000000e+00  9.8738551389e+01  9.8738551389e+01  0.0000000000e+00 0. 9.
       21    -1     0     0   102   103  0.0000000000e+00  0.0000000000e+00 -4.8404714562e+02  4.8404714562e+02  0.0000000000e+00 0. 9.
        6     2     1     2   101     0 -4.9827211142e+01 -1.6718213761e+01 -3.4086269718e+01  1.8881413614e+02  1.7811977594e+02  7.441730e-14 9.
       -6     2     1     2     0   103  4.9827211142e+01  1.6718213761e+01 -3.5122232451e+02  3.9397156087e+02  1.7057027847e+02  6.569818e-14 9.
       24     2     3     0     0     0  3.9326265543e+01  1.5223784737e+01 -2.8260826826e+01  9.3810928516e+01  7.8889144963e+01  3.112364e-14 9.
        5     1     3     0   101     0 -8.9153476685e+01 -3.1941998498e+01 -5.8254428919e+00  9.5003207620e+01  4.8000000000e+00 0. 9.
      -24     2     4     0     0     0 -3.4240605317e+00  3.0673803542e+01 -8.1670500700e+01  1.1881400211e+02  8.0585916880e+01  5.730948e-14 9.
       -5     1     4     0     0   103  5.3251271674e+01 -1.3955589781e+01 -2.6955182381e+02  2.7515755875e+02  4.8000000000e+00 0. 9.
       -1     1     5     0     0   104  4.1454160065e+00  2.4326801919e+01 -4.6878820509e+01  5.2978396331e+01  3.3000000000e-01 0. 9.
        2     1     5     0   104     0  3.5180849536e+01 -9.1030171816e+00  1.8617993683e+01  4.0832532186e+01  3.3000000000e-01 0. 9.
        3     1     7     0   105     0 -1.4228488283e+01  3.0264567108e+01 -9.5504730311e+01  1.0119188412e+02  5.0000000000e-01 0. 9.
       -4     1     7     0     0   105  1.0804427752e+01  4.0923643434e-01  1.3834229610e+01  1.7622117989e+01  1.5000000000e+00 0. 9.
#pdf   21   21  1.519055e-02  7.446879e-02  1.784838e+02  5.825310e+00  1.210646e+00
</event>
<event>
    12  9999  1.000000e+00  2.369030e+02  7.903038e-03  1.036067e-01
       21    -1     0     0   101   102  0.0000000000e+00  0.0000000000e+00  3.7539641198e+02  3.7539641198e+02  0.0000000000e+00 0. 9.
       21    -1     0     0   103   101  0.0000000000e+00  0.0000000000e+00 -1.6711409830e+02  1.6711409830e+02  0.0000000000e+00 0. 9.
        6     2     1     2   103     0  2.9087907660e+01  1.2017078825e+02  3.2657472482e+01  2.6798396116e+02  2.3550322335e+02  8.021313e-14 9.
       -6     2     1     2     0   102 -2.9087907660e+01 -1.2017078825e+02  1.7562484120e+02  2.7452654912e+02  1.7097840976e+02  7.665721e-14 9.
       24     2     3     0     0     0  3.3107914871e+00  1.1609679532e+02 -7.3044687472e+01  1.5900211058e+02  8.0353702950e+01  8.805170e-14 9.
        5     1     3     0   103     0  2.5777116173e+01  4.0739929366e+00  1.0570215995e+02  1.0898185058e+02  4.8000000000e+00 0. 9.
      -24     2     4     0     0     0  4.8050442914e+01 -8.2679244065e+01  9.6762517594e+01  1.5791502696e+02  8.0183966389e+01  1.094732e-13 9.
       -5     1     4     0     0   102 -7.7138350574e+01 -3.7491544187e+01  7.8862323608e+01  1.1661152216e+02  4.8000000000e+00 0. 9.
       -3     1     5     0     0   104 -7.8181845413e+00 -9.1905738629e+00 -1.8047138078e+01  2.1714968346e+01  5.0000000000e-01 0. 9.
        4     1     5     0   104     0  1.1128976028e+01  1.2528736918e+02 -5.4997549394e+01  1.3728714223e+02  1.5000000000e+00 0. 9.
        1     1     7     0   105     0  5.9385464625e+01 -8.8147673811e+01  9.8856127464e+01  1.4515263912e+02  3.3000000000e-01 0. 9.
       -2     1     7     0     0   105 -1.1335021711e+01  5.4684297459e+00 -2.0936098698e+00  1.2762387839e+01  3.3000000000e-01 0. 9.
#pdf   21   21  5.775329e-02  2.570986e-02  2.109994e+02  1.613411e+00  3.680965e+00
</event>
<event>
    12  9999  1.000000e+00  1.969846e+02  7.886362e-03  1.059304e-01
       21    -1     0     0   101   102  0.0000000000e+00  0.0000000000e+00  8.9758410051e+01  8.9758410051e+01  0.0000000000e+00 0. 9.
       21    -1     0     0   103   101  0.0000000000e+00  0.0000000000e+00 -4.3371667771e+02  4.3371667771e+02  0.0000000000e+00 0. 9.
        6     2     1     2   103     0  8.0275383389e+01 -5.4598796580e+01 -1.5706027731e+02  2.5195099710e+02  1.7142406035e+02  2.680057e-13 9.
       -6     2     1     2     0   102 -8.0275383389e+01  5.4598796580e+01 -1.8689799035e+02  2.7152409066e+02  1.7137475673e+02  2.888543e-14 9.
       24     2     3     0     0     0  2.2142284262e+01 -3.1224216131e+01 -1.6267063697e+02  1.8886102673e+02  8.7985901494e+01  1.181339e-13 9.
        5     1     3     0   103     0  5.8133099126e+01 -2.3374580449e+01  5.6103596636e+00  6.3089970366e+01  4.8000000000e+00 0. 9.
      -24     2     4     0     0     0 -3.6881343776e+01 -3.8967431157e+00 -1.9351489244e+01  8.8768404368e+01  7.8293878129e+01  8.740549e-14 9.
       -5     1     4     0     0   102 -4.3394039612e+01  5.8495539696e+01 -1.6754650111e+02  1.8275568629e+02  4.8000000000e+00 0. 9.
       -3     1     5     0     0   104 -2.1291607950e+01  2.3195785994e+00 -5.1303773871e+00  2.2029157635e+01  5.0000000000e-01 0. 9.
        4     1     5     0   104     0  4.3433892213e+01 -3.3543794731e+01 -1.5754025958e+02  1.6683186910e+02  1.5000000000e+00 0. 9.
        1     1     7     0   105     0  2.1791668166e+01 -1.5565068506e+01 -7.0455149078e+00  2.7692893301e+01  3.3000000000e-01 0. 9.
       -2     1     7     0     0   105 -5.8673011942e+01  1.1668325390e+01 -1.2305974336e+01  6.1075511067e+01  3.3000000000e-01 0. 9.
#pdf   21   21  1.380899e-02  6.672564e-02  1.969631e+02  6.294568e+00  1.371146e+00
</event>
<event>
    12  9999  1.000000e+00  2.571727e+02  7.910480e-03  1.026057e-01
       21    -1     0     0   101   102  0.0000000000e+00  0.0000000000e+00  4.5377708169e+02  4.5377708169e+02  0.0000000000e+00 0. 9.
       21    -1     0     0   102   103  0.0000000000e+00  0.0000000000e+00 -1.7493044915e+02  1.7493044915e+02  0.0000000000e+00 0. 9.
        6     2     1     2   101     0  1.9125726562e+02  1.1204219228e+01  1.1207810054e+01  2.5780404482e+02  1.7214073991e+02  1.244681e-13 9.
       -6     2     1     2     0   103 -1.9125726562e+02 -1.1204219228e+01  2.6763882249e+02  3.7090348602e+02  1.7097947378e+02  2.366009e-14 9.
       24     2     3     0     0     0  1.7596117451e+02  3.2329161846e+01 -3.9392706093e+01  2.0067536692e+02  8.1922572937e+01  8.923671e-14 9.
        5     1     3     0   101     0  1.5296091116e+01 -2.1124942618e+01  5.0600516148e+01  5.7128677899e+01  4.8000000000e+00 0. 9.
      -24     2     4     0     0     0 -5.8122446148e+01 -2.4382683455e+00  1.9500020141e+02  2.1891292274e+02  8.0707033749e+01  2.580388e-14 9.
       -5     1     4     0     0   103 -1.3313481948e+02 -8.7659508828e+00  7.2638621078e+01  1.5199056327e+02  4.8000000000e+00 0. 9.
      -13     1     5     0     0     0  3.1429104185e+01 -6.2555609434e-01 -4.1938420298e+01  5.2412042237e+01  1.0566000000e-01  2.102876e+05 9.
       14     1     5     0     0     0  1.4453207032e+02  3.2954717941e+01  2.5457142045e+00  1.4826332469e+02  0.0000000000e+00 0. 9.
       13     1     7     0     0     0 -3.3587710298e+01 -1.9007293909e+00  1.4301345153e+01  3.6555255334e+01  1.0566000000e-01  1.253862e+05 9.
      -14     1     7     0     0     0 -2.4534735849e+01 -5.3753895466e-01  1.8069885626e+02  1.8235766741e+02  0.0000000000e+00 0. 9.
#pdf   21   21  6.981186e-02  2.691238e-02  2.567856e+02  1.270721e+00  3.504694e+00
</event>
<event>
    12  9999  1.000000e+00  1.761647e+02  7.876301e-03  1.073892e-01
       21    -1     0     0   101   102  0.0000000000e+00  0.0000000000e+00  4.6994328631e+01  4.6994328631e+01  0.0000000000e+00 0. 9.
       21    -1     0     0   102   103  0.0000000000e+00  0.0000000000e+00 -6.6106353449e+02  6.6106353449e+02  0.0000000000e+00 0. 9.
        6     2     1     2   101     0 -4.1740226278e+01 -1.7594980036e+01 -3.1032916146e+02  3.5937348102e+02  1.7548014302e+02  3.008432e-13 9.
       -6     2     1     2     0   103  4.1740226278e+01  1.7594980036e+01 -3.0374004440e+02  3.4868438211e+02  1.6513919565e+02  1.389082e-13 9.
       24     2     3     0     0     0 -2.0240994845e+01 -5.0635607338e+01 -3.0409031208e+02  3.1917567951e+02  8.0178138436e+01  7.366369e-14 9.
        5     1     3     0   101     0 -2.1499231433e+01  3.3040627301e+01 -6.2388493765e+00  4.0197801510e+01  4.8000000000e+00 0. 9.
      -24     2     4     0     0     0  1.8021982492e+01 -1.4064908072e+01 -2.9701722532e+02  3.0827225645e+02  7.9309132338e+01  1.030444e-13 9.
       -5     1     4     0     0   103  2.3718243785e+01  3.1659888108e+01 -6.7228190841e+00  4.0412125652e+01  4.8000000000e+00 0. 9.
      -13     1     5     0     0     0 -4.1098315315e+01 -9.7913160769e+00 -8.0317417468e+01  9.0751529491e+01  1.0566000000e-01  1.181290e+06 9.
       14     1     5     0     0     0  2.0857320471e+01 -4.0844291261e+01 -2.2377289462e+02  2.2842415002e+02  0.0000000000e+00 0. 9.
       15     1     7     0     0     0  3.3678514996e+01  2.1811172903e+01 -1.0757257813e+02  1.1482589556e+02  1.7768200000e+00  1.035095e-01 9.
      -16     1     7     0     0     0 -1.5656532504e+01 -3.5876080975e+01 -1.8944464719e+02  1.9344636090e+02  0.0000000000e+00 0. 9.
#pdf   21   21  7.229897e-03  1.017021e-01  1.712390e+02  1.030787e+01  8.120410e-01
</event>
<event>
    12  9999  1.000000e+00  1.921417e+02  7.884118e-03  1.062520e-01
       -1    -1     0     0     0   101  0.0000000000e+00  0.0000000000e+00  4.9554117530e+02  4.9554117530e+02  0.0000000000e+00 0. 9.
        1    -1     0     0   102     0  0.0000000000e+00  0.0000000000e+00 -7.4918926212e+01  7.4918926212e+01  0.0000000000e+00 0. 9.
       -6     2     1     2     0   101  7.8769885150e+01  1.0702834031e+01  1.8682212794e+02  2.6639028726e+02  1.7245878404e+02  1.724647e-13 9.
        6     2     1     2   102     0 -7.8769885150e+01 -1.0702834031e+01  2.3380012114e+02  3.0406981425e+02  1.7741676874e+02  1.196574e-14 9.
      -24     2     3     0     0     0  1.0575235027e+02  2.7826993922e+01  8.6860121282e+01  1.6133443044e+02  8.0785002300e+01  5.413515e-16 9.
       -5     1     3     0     0   101 -2.6982465123e+01 -1.7124159891e+01  9.9962006660e+01  1.0505585682e+02  4.8000000000e+00 0. 9.
       24     2     4     0     0     0  1.1412117746e+00  3.2478982036e+01  5.2361216514e+01  1.0110782578e+02  8.0155528827e+01  1.809867e-13 9.
        5     1     4     0   102     0 -7.9911096925e+01 -4.3181816067e+01  1.8143890463e+02  2.0296198847e+02  4.8000000000e+00 0. 9.
        1     1     5     0   103     0  3.2723924543e+01  2.9141059456e+01  7.5668829633e+01  8.7441050210e+01  3.3000000000e-01 0. 9.
       -2     1     5     0     0   103  7.3028425730e+01 -1.3140655341e+00  1.1191291649e+01  7.3893380229e+01  3.3000000000e-01 0. 9.
       -3     1     7     0     0   104 -2.3225966693e+01  3.5274263462e+01  6.1740820214e+01  7.4805735558e+01  5.0000000000e-01 0. 9.
        4     1     7     0   104     0  2.4367178467e+01 -2.7952814258e+00 -9.3796037001e+00  2.6302090226e+01  1.5000000000e+00 0. 9.
#pdf   -1    1  7.623710e-02  1.152599e-02  1.898981e+02  1.282890e-01  6.500300e-01
</event>
<event>
    12  9999  1.000000e+00  1.721326e+02  7.874219e-03  1.076967e-01
       21    -1     0     0   101   102  0.0000000000e+00  0.0000000000e+00  1.4678599957e+01  1.4678599957e+01  0.0000000000e+00 0. 9.
       21    -1     0     0   103   101  0.0000000000e+00  0.0000000000e+00 -2.9133102864e+03  2.9133102864e+03  0.0000000000e+00 0. 9.
        6     2     1     2   103     0  1.5974527887e+01  1.6823356838e+01 -2.2618850193e+03  2.2684415117e+03  1.7077716635e+02  9.362436e-15 9.
       -6     2     1     2     0   102 -1.5974527887e+01 -1.6823356838e+01 -6.3674666713e+02  6.5954737466e+02  1.7034732295e+02  6.128735e-14 9.
       24     2     3     0     0     0  4.3633228575e+01  5.1238133292e+01 -2.0067573397e+03  2.0094771252e+03  7.9963062732e+01  1.691112e-13 9.
        5     1     3     0   103     0 -2.7658700689e+01 -3.4414776454e+01 -2.5512767963e+02  2.5896438650e+02  4.8000000000e+00 0. 9.
      -24     2     4     0     0     0 -6.0370873726e+01  2.2943886795e+01 -3.1912793297e+02  3.3634903079e+02  8.4362127601e+01  1.261690e-14 9.
       -5     1     4     0     0   102  4.4396345840e+01 -3.9767243633e+01 -3.1761873416e+02  3.2319834387e+02  4.8000000000e+00 0. 9.
       -3     1     5     0     0   104  7.9322845712e+00  6.4060807044e+01 -1.4428935445e+03  1.4443367816e+03  5.0000000000e-01 0. 9.
        4     1     5     0   104     0  3.5700944004e+01 -1.2822673753e+01 -5.6386379520e+02  5.6514034354e+02  1.5000000000e+00 0. 9.
        1     1     7     0   105     0 -1.8702953051e+01 -3.6311568924e+00 -2.5338910940e+02  2.5410457574e+02  3.3000000000e-01 0. 9.
       -2     1     7     0     0   105 -4.1667920675e+01  2.6575043687e+01 -6.5738823574e+01  8.2244455042e+01  3.3000000000e-01 0. 9.
#pdf   21   21  2.258246e-03  4.482016e-01  1.719198e+02  2.261349e+01  1.993583e-02
</event>
<event>
    12  9999  1.000000e+00  5.457261e+02  7.979341e-03  9.426945e-02
       21    -1     0     0   101   102  0.0000000000e+00  0.0000000000e+00  9.2093864198e+02  9.2093864198e+02  0.0000000000e+00 0. 9.
       21    -1     0     0   103   101  0.0000000000e+00  0.0000000000e+00 -1.0467714513e+03  1.0467714513e+03  0.0000000000e+00 0. 9.
        6     2     1     2   103     0 -1.3968215458e+02 -4.9930876968e+02 -8.8079039425e+02  1.0360343660e+03  1.6957339746e+02  5.367276e-14 9.
       -6     2     1     2     0   102  1.3968215458e+02  4.9930876968e+02  7.5495758494e+02  9.3167572728e+02  1.7099226285e+02  3.028358e-14 9.
       24     2     3     0     0     0 -4.6978615905e+01 -2.9384946376e+02 -4.1097969248e+02  5.1492726763e+02  8.7699974958e+01  3.835234e-14 9.
        5     1     3     0   103     0 -9.2703538674e+01 -2.0545930592e+02 -4.6981070177e+02  5.2110709836e+02  4.8000000000e+00 0. 9.
      -24     2     4     0     0     0  1.8902852317e+01  1.2972199597e+02  1.6632692130e+02  2.2620345899e+02  7.9487395495e+01  7.420041e-14 9.
       -5     1     4     0     0   102  1.2077930226e+02  3.6958677370e+02  5.8863066364e+02  7.0547226829e+02  4.8000000000e+00 0. 9.
       -3     1     5     0     0   104  8.1285384997e+00 -9.8877432255e+00 -5.3816249805e+01  5.5319791642e+01  5.0000000000e-01 0. 9.
        4     1     5     0   104     0 -5.5107154405e+01 -2.8396172053e+02 -3.5716344268e+02  4.5960747599e+02  1.5000000000e+00 0. 9.
        1     1     7     0   105     0 -1.8201657202e+01  9.3179619924e+01  1.3624208560e+02  1.6605949742e+02  3.3000000000e-01 0. 9.
       -2     1     7     0     0   105  3.7104509519e+01  3.6542376049e+01  3.0084835703e+01  6.0143961569e+01  3.3000000000e-01 0. 9.
#pdf   21   21  1.416829e-01  1.610418e-01  5.455048e+02  4.295704e-01  3.435566e-01
</event>
<event>
    12  9999  1.000000e+00  1.842316e+02  7.880331e-03  1.067997e-01
       21    -1     0     0   101   102  0.0000000000e+00  0.0000000000e+00  5.8856623352e+01  5.8856623352e+01  0.0000000000e+00 0. 9.
       21    -1     0     0   103   101  0.0000000000e+00  0.0000000000e+00 -5.8988727647e+02  5.8988727647e+02  0.0000000000e+00 0. 9.
        6     2     1     2   103     0  6.5511005223e+01 -1.1896217676e+01 -2.1820500416e+02  2.8613281434e+02  1.7270017893e+02  2.055443e-14 9.
       -6     2     1     2     0   102 -6.5511005223e+01  1.1896217676e+01 -3.1282564896e+02  3.6261108548e+02  1.7086164247e+02  1.090454e-13 9.
       24     2     3     0     0     0  1.3310526329e+01  3.7909273026e+01 -1.8695660514e+02  2.0736112309e+02  8.0197132571e+01  1.056977e-13 9.
        5     1     3     0   103     0  5.2200478894e+01 -4.9805490702e+01 -3.1248399023e+01  7.8771691250e+01  4.8000000000e+00 0. 9.
      -24     2     4     0     0     0  9.6121346872e+00  9.5695705391e+00 -7.8043317176e+01  1.1604530774e+02  8.4804388322e+01  1.210920e-13 9.
       -5     1     4     0     0   102 -7.5123139910e+01  2.3266471370e+00 -2.3478233179e+02  2.4656577775e+02  4.8000000000e+00 0. 9.
      -15     1     5     0     0     0 -3.2014187535e+01  4.4473907671e+00 -8.3577450931e+01  8.9627199452e+01  1.7768200000e+00  6.070771e-03 9.
       16     1     5     0     0     0  4.5324713863e+01  3.3461882259e+01 -1.0337915421e+02  1.1773392364e+02  0.0000000000e+00 0. 9.
       15     1     7     0     0     0  4.2593557642e+01  2.4302938381e+01 -5.2104669448e+01  7.1574420250e+01  1.7768200000e+00  4.890349e-02 9.
      -16     1     7     0     0     0 -3.2981422954e+01 -1.4733367841e+01 -2.5938647728e+01  4.4470887489e+01  0.0000000000e+00 0. 9.
#pdf   21   21  9.054865e-03  9.075189e-02  1.833764e+02  8.743834e+00  9.397159e-01
</event>
<event>
    12  9999  1.000000e+00  1.910010e+02  7.883581e-03  1.063292e-01
       21    -1     0     0   101   102  0.0000000000e+00  0.0000000000e+00  3.9320936577e+01  3.9320936577e+01  0.0000000000e+00 0. 9.
       21    -1     0     0   103   101  0.0000000000e+00  0.0000000000e+00 -1.0589187071e+03  1.0589187071e+03  0.0000000000e+00 0. 9.
        6     2     1     2   103     0 -7.8345092686e+01  2.8136421863e+01 -7.0433302487e+02  7.2991768099e+02  1.7252593806e+02  1.161853e-13 9.
       -6     2     1     2     0   102  7.8345092686e+01 -2.8136421863e+01 -3.1526474565e+02  3.6832196269e+02  1.7128805145e+02  4.329401e-14 9.
       24     2     3     0     0     0 -9.8462211435e+01 -2.8332672492e+01 -4.5510090515e+02  4.7353291820e+02  8.1357503307e+01  1.374943e-15 9.
        5     1     3     0   103     0  2.0117118749e+01  5.6469094354e+01 -2.4923211973e+02  2.5638476278e+02  4.8000000000e+00 0. 9.
      -24     2     4     0     0     0  3.4887471771e+00 -4.7084797822e+01 -9.0230117769e+01  1.3035949263e+02  8.1381654088e+01  6.162284e-14 9.
       -5     1     4     0     0   102  7.4856345508e+01  1.8948375960e+01 -2.2503462788e+02  2.3796247007e+02  4.8000000000e+00 0. 9.
       -3     1     5     0     0   104 -3.6501794029e+01 -5.2728966267e+01 -2.1443673664e+02  2.2382155587e+02  5.0000000000e-01 0. 9.
        4     1     5     0   104     0 -6.1960417406e+01  2.4396293775e+01 -2.4066416851e+02  2.4971136234e+02  1.5000000000e+00 0. 9.
       15     1     7     0     0     0 -3.0656623501e+01 -2.4387267263e-01 -1.1945056479e+01  3.2950409739e+01  1.7768200000e+00  8.911232e-02 9.
      -16     1     7     0     0     0  3.4145370678e+01 -4.6840925150e+01 -7.8285061290e+01  9.7409082886e+01  0.0000000000e+00 0. 9.
#pdf   21   21  6.049375e-03  1.629106e-01  1.904448e+02  1.175783e+01  3.912502e-01
</event>
<event>
    12  9999  1.000000e+00  1.936519e+02  7.884824e-03  1.061507e-01
       21    -1     0     0   101   102  0.0000000000e+00  0.0000000000e+00  1.6287072694e+03  1.6287072694e+03  0.0000000000e+00 0. 9.
       21    -1     0     0   102   103  0.0000000000e+00  0.0000000000e+00 -8.8708435255e+01  8.8708435255e+01  0.0000000000e+00 0. 9.
        6     2     1     2   101     0 -2.8883233099e+01 -8.3600133565e+01  1.5076394032e+03  1.5198709965e+03  1.7090363441e+02  1.725447e-14 9.
       -6     2     1     2     0   103  2.8883233099e+01  8.3600133565e+01  3.2359430907e+01  1.9754470818e+02  1.7364779144e+02  2.941377e-13 9.
       24     2     3     0     0     0 -5.9093496810e+01 -1.0096153049e+02  1.3875533858e+03  1.3947399863e+03  7.9435249058e+01  2.315862e-13 9.
        5     1     3     0   101     0  3.0210263711e+01  1.7361396924e+01  1.2008601740e+02  1.2513101020e+02  4.8000000000e+00 0. 9.
      -24     2     4     0     0     0 -5.0600809835e+01  4.0390708081e+01  6.4612852955e+00  1.0331880156e+02  8.0256932987e+01  1.602140e-13 9.
       -5     1     4     0     0   103  7.9484042935e+01  4.3209425485e+01  2.5898145611e+01  9.4225906618e+01  4.8000000000e+00 0. 9.
       -1     1     5     0     0   104 -5.6199641097e+01 -6.9956951847e+01  1.2688680701e+03  1.2720372098e+03  3.3000000000e-01 0. 9.
        2     1     5     0   104     0 -2.8938557129e+00 -3.1004578642e+01  1.1868531571e+02  1.2270277651e+02  3.3000000000e-01 0. 9.
       15     1     7     0     0     0  6.9979012831e+00  1.5590341989e+01  3.1430351112e+01  3.5819735427e+01  1.7768200000e+00  3.990293e-01 9.
      -16     1     7     0     0     0 -5.7598711118e+01  2.4800366091e+01 -2.4969065817e+01  6.7499066131e+01  0.0000000000e+00 0. 9.
#pdf   21   21  2.505703e-01  1.364745e-02  1.924351e+02  1.653699e-01  6.355024e+00
</event>
<event>
    12  9999  1.000000e+00  2.532878e+02  7.909100e-03  1.027898e-01
       21    -1     0     0   101   102  0.0000000000e+00  0.0000000000e+00  2.4023919549e+02  2.4023919549e+02  0.0000000000e+00 0. 9.
       21    -1     0     0   103   101  0.0000000000e+00  0.0000000000e+00 -3.5978073142e+02  3.5978073142e+02  0.0000000000e+00 0. 9.
        6     2     1     2   103     0  1.8264240056e+02  9.2242151618e+00 -2.1171848784e+02  3.2859923259e+02  1.7236416372e+02  2.571756e-13 9.
       -6     2     1     2     0   102 -1.8264240056e+02 -9.2242151618e+00  9.2176951909e+01  2.7142069431e+02  1.7812711812e+02  1.455347e-14 9.
       24     2     3     0     0     0  1.3039529528e+02 -5.7946057250e+01 -1.1729118218e+02  2.0139403788e+02  8.0259943276e+01  7.971556e-14 9.
        5     1     3     0   103     0  5.2247105276e+01  6.7170272412e+01 -9.4427305660e+01  1.2720519470e+02  4.8000000000e+00 0. 9.
      -24     2     4     0     0     0 -1.5252268553e+02 -1.4553262371e+01 -1.7329558361e+00  1.7253840697e+02  7.9319176098e+01  1.212359e-14 9.
       -5     1     4     0     0   102 -3.0119715028e+01  5.3290472090e+00  9.3909907745e+01  9.8882287344e+01  4.8000000000e+00 0. 9.
       -3     1     5     0     0   104  9.4293715914e+01 -2.7293450380e+01 -1.1864620239e+02  1.5399158625e+02  5.0000000000e-01 0. 9.
        4     1     5     0   104     0  3.6101579369e+01 -3.0652606870e+01  1.3550202102e+00  4.7402451631e+01  1.5000000000e+00 0. 9.
       15     1     7     0     0     0 -6.6761343060e+01  3.2661676489e+01  4.1751465115e+00  7.4461070204e+01  1.7768200000e+00  4.294119e-02 9.
      -16     1     7     0     0     0 -8.5761342471e+01 -4.7214938859e+01 -5.9081023476e+00  9.8077336767e+01  0.0000000000e+00 0. 9.
#pdf   21   21  3.695988e-02  5.535088e-02  2.513021e+02  2.575540e+00  1.672128e+00
</event>
<event>
    12  9999  1.000000e+00  2.364422e+02  7.902862e-03  1.036307e-01
       21    -1     0     0   101   102  0.0000000000e+00  0.0000000000e+00  9.3300101570e+01  9.3300101570e+01  0.0000000000e+00 0. 9.
       21    -1     0     0   103   101  0.0000000000e+00  0.0000000000e+00 -6.0494478530e+02  6.0494478530e+02  0.0000000000e+00 0. 9.
        6     2     1     2   103     0  1.5656982932e+02 -4.9641960923e+01 -2.2049435625e+02  3.2238900379e+02  1.6834034836e+02  4.223397e-14 9.
       -6     2     1     2     0   102 -1.5656982932e+02  4.9641960923e+01 -2.9115032748e+02  3.7585588308e+02  1.7181587796e+02  3.027165e-13 9.
       24     2     3     0     0     0  1.0111191711e+01 -3.1210603904e+01 -6.3702259042e+01  1.0699018949e+02  7.9451776866e+01  1.346417e-14 9.
        5     1     3     0   103     0  1.4645863761e+02 -1.8431357020e+01 -1.5679209721e+02  2.1539881429e+02  4.8000000000e+00 0. 9.
      -24     2     4     0     0     0 -1.0885031350e+02  9.9510612722e+01 -2.1006180388e+02  2.6926121492e+02  8.1393412595e+01  7.038919e-15 9.
       -5     1     4     0     0   102 -4.7719515822e+01 -4.9868651799e+01 -8.1088523595e+01  1.0659466817e+02  4.8000000000e+00 0. 9.
       -1     1     5     0     0   104  2.1037476890e+01 -5.5455980549e+01 -4.5654169906e+01  7.4848870014e+01  3.3000000000e-01 0. 9.
        2     1     5     0   104     0 -1.0926285178e+01  2.4245376645e+01 -1.8048089136e+01  3.2141319480e+01  3.3000000000e-01 0. 9.
       15     1     7     0     0     0 -9.4410236649e+01  5.3302367196e+01 -1.8576129943e+02  2.1509266047e+02  1.7768200000e+00  2.239047e-02 9.
      -16     1     7     0     0     0 -1.4440076849e+01  4.6208245526e+01 -2.4300504454e+01  5.4168554446e+01  0.0000000000e+00 0. 9.
#pdf   21   21  1.435386e-02  9.306843e-02  2.351955e+02  6.092429e+00  8.865156e-01
</event>
<event>
    12  9999  1.000000e+00  1.723690e+02  7.874342e-03  1.076785e-01
       21    -1     0     0   101   102  0.0000000000e+00  0.0000000000e+00  2.1245819710e+03  2.1245819710e+03  0.0000000000e+00 0. 9.
       21    -1     0     0   103   101  0.0000000000e+00  0.0000000000e+00 -1.7520431161e+01  1.7520431161e+01  0.0000000000e+00 0. 9.
        6     2     1     2   103     0 -1.1390630728e+01 -1.9774017208e+01  5.7017113835e+02  5.9552578308e+02  1.7039681065e+02  1.391188e-14 9.
       -6     2     1     2     0   102  1.1390630728e+01  1.9774017208e+01  1.5368904015e+03  1.5465766191e+03  1.7130783484e+02  4.745825e-14 9.
       24     2     3     0     0     0  8.7058669180e+00  1.6305430186e+01  1.2950490827e+02  1.5290250977e+02  7.9158051111e+01  1.227550e-14 9.
        5     1     3     0   103     0 -2.0096497646e+01 -3.6079447394e+01  4.4066623007e+02  4.4262327330e+02  4.8000000000e+00 0. 9.
      -24     2     4     0     0     0  3.3705456087e+01  4.4518215400e+01  5.1604249292e+02  5.2517379982e+02  7.9935825774e+01  4.170846e-14 9.
       -5     1     4     0     0   102 -2.2314825359e+01 -2.4744198191e+01  1.0208479085e+03  1.0214028192e+03  4.8000000000e+00 0. 9.
       -3     1     5     0     0   104  1.3473653131e+01  2.4982793007e+01  1.3730506815e+02  1.4020916880e+02  5.0000000000e-01 0. 9.
        4     1     5     0   104     0 -4.7677862135e+00 -8.6773628216e+00 -7.8001598795e+00  1.2693340973e+01  1.5000000000e+00 0. 9.
        3     1     7     0   105     0 -2.6374557476e+01  1.2629500197e+01  1.7199791496e+02  1.7446677135e+02  5.0000000000e-01 0. 9.
       -4     1     7     0     0   105  6.0080013563e+01  3.1888715203e+01  3.4404457796e+02  3.5070702846e+02  1.5000000000e+00 0. 9.
#pdf   21   21  3.268588e-01  2.695451e-03  1.719181e+02  8.050323e-02  2.020120e+01
</event>
<event>
    12  9999  1.000000e+00  1.857818e+02  7.881085e-03  1.066900e-01
       21    -1     0     0   101   102  0.0000000000e+00  0.0000000000e+00  1.7531685663e+02  1.7531685663e+02  0.0000000000e+00 0. 9.
       21    -1     0     0   103   101  0.0000000000e+00  0.0000000000e+00 -2.4063248207e+02  2.4063248207e+02  0.0000000000e+00 0. 9.
        6     2     1     2   103     0 -8.0254648004e+00 -6.8929210854e+01 -1.2125598714e+02  2.2132925892e+02  1.7166240778e+02  9.855460e-14 9.
       -6     2     1     2     0   102  8.0254648004e+00  6.8929210854e+01  5.5940361694e+01  1.9462007978e+02  1.7300869109e+02  3.420150e-13 9.
       24     2     3     0     0     0  1.8830116214e+01 -3.8848113027e+01 -1.4836390802e+02  1.7250330217e+02  7.6692834712e+01  1.775987e-14 9.
        5     1     3     0   103     0 -2.6855581014e+01 -3.0081097826e+01  2.7107920882e+01  4.8825956751e+01  4.8000000000e+00 0. 9.
      -24     2     4     0     0     0  2.8897031779e+01 -2.7269077656e+00  7.9892635133e+01  1.1609000244e+02  7.9066940289e+01  2.305116e-14 9.
       -5     1     4     0     0   102 -2.0871566978e+01  7.1656118619e+01 -2.3952273438e+01  7.8530077337e+01  4.8000000000e+00 0. 9.
      -11     1     5     0     0     0  1.2499100758e+01 -6.0788447774e+01 -8.5720418737e+01  1.0582746851e+02  5.1100000000e-04 0. 9.
       12     1     5     0     0     0  6.3310154558e+00  2.1940334747e+01 -6.2643489281e+01  6.6675833664e+01  0.0000000000e+00 0. 9.
        3     1     7     0   104     0  1.1407504825e+00  1.3639046568e+01  8.2592498847e+01  8.3720342622e+01  5.0000000000e-01 0. 9.
       -4     1     7     0     0   104  2.7756281296e+01 -1.6365954334e+01 -2.6998637148e+00  3.2369659818e+01  1.5000000000e+00 0. 9.
#pdf   21   21  2.697182e-02  3.702038e-02  1.851584e+02  3.536506e+00  2.610005e+00
</event>
<event>
    12  9999  1.000000e+00  1.959356e+02  7.885881e-03  1.059992e-01
       21    -1     0     0   101   102  0.0000000000e+00  0.0000000000e+00  1.7931148272e+02  1.7931148272e+02  0.0000000000e+00 0. 9.
       21    -1     0     0   102   103  0.0000000000e+00  0.0000000000e+00 -2.5129596697e+02  2.5129596697e+02  0.0000000000e+00 0. 9.
        6     2     1     2   101     0  6.1902164255e+01 -7.2818763166e+01 -1.1878268918e+02  2.2890193576e+02  1.7074050117e+02  2.162383e-13 9.
       -6     2     1     2     0   103 -6.1902164255e+01  7.2818763166e+01  4.6798204932e+01  2.0170551392e+02  1.7134932784e+02  5.566685e-14 9.
       24     2     3     0     0     0  9.4026296148e+01 -7.7517830906e+00 -7.6510766620e+01  1.4478518842e+02  7.8789712967e+01  1.583709e-14 9.
        5     1     3     0   101     0 -3.2124131893e+01 -6.5066980076e+01 -4.2271922564e+01  8.4116747341e+01  4.8000000000e+00 0. 9.
      -24     2     4     0     0     0  2.6173324069e+01  6.0550076898e+00  1.3660009070e+01  8.6224473424e+01  8.0785877222e+01  3.980720e-14 9.
       -5     1     4     0     0   103 -8.8075488325e+01  6.6763755476e+01  3.3138195862e+01  1.1548104050e+02  4.8000000000e+00 0. 9.
       -3     1     5     0     0   104  1.5115262521e+01 -3.2741883738e+01 -7.1177420761e+00  3.6761588160e+01  5.0000000000e-01 0. 9.
        4     1     5     0   104     0  7.8911033627e+01  2.4990100647e+01 -6.9393024544e+01  1.0802360026e+02  1.5000000000e+00 0. 9.
        1     1     7     0   105     0 -2.7455462474e+01  1.1390623968e+01  1.2688544214e+01  3.2321150789e+01  3.3000000000e-01 0. 9.
       -2     1     7     0     0   105  5.3628786543e+01 -5.3356162777e+00  9.7146485594e-01  5.3903322635e+01  3.3000000000e-01 0. 9.
#pdf   21   21  2.758638e-02  3.866092e-02  1.956701e+02  3.457404e+00  2.492329e+00
</event>
<event>
    12  9999  1.000000e+00  2.110318e+02  7.892579e-03  1.050507e-01
       21    -1     0     0   101   102  0.0000000000e+00  0.0000000000e+00  1.7593768555e+02  1.7593768555e+02  0.0000000000e+00 0. 9.
       21    -1     0     0   103   101  0.0000000000e+00  0.0000000000e+00 -3.4842046827e+02  3.4842046827e+02  0.0000000000e+00 0. 9.
        6     2     1     2   103     0  7.5879052526e+01 -9.0405020343e+01 -2.2229192950e+02  3.0421139337e+02  1.7088057706e+02  1.838026e-13 9.
       -6     2     1     2     0   102 -7.5879052526e+01  9.0405020343e+01  4.9809146786e+01  2.2014676045e+02  1.7903336761e+02  3.202191e-14 9.
       24     2     3     0     0     0  4.0657509197e+01  7.7229405624e+00 -6.5694687951e+01  1.1602162243e+02  8.6212226397e+01  1.023766e-14 9.
        5     1     3     0   103     0  3.5221543329e+01 -9.8127960905e+01 -1.5659724155e+02  1.8818977094e+02  4.8000000000e+00 0. 9.
      -24     2     4     0     0     0 -9.0536119520e+01  7.7777829460e+00 -2.2398530459e+00  1.2128206324e+02  8.0293455995e+01  7.622851e-14 9.
       -5     1     4     0     0   102  1.4657066993e+01  8.2627237397e+01  5.2048999832e+01  9.8864697219e+01  4.8000000000e+00 0. 9.
       -3     1     5     0     0   104  2.5008835737e+01 -1.4337546282e+01  1.3853868512e+01  3.1987290774e+01  5.0000000000e-01 0. 9.
        4     1     5     0   104     0  1.5648673461e+01  2.2060486845e+01 -7.9548556463e+01  8.4034331652e+01  1.5000000000e+00 0. 9.
        3     1     7     0   105     0 -1.2330230906e+00 -1.0025846326e+01 -2.5375331309e+01  2.7316577010e+01  5.0000000000e-01 0. 9.
       -4     1     7     0     0   105 -8.9303096429e+01  1.7803629272e+01  2.3135478263e+01  9.3965486225e+01  1.5000000000e+00 0. 9.
#pdf   21   21  2.706734e-02  5.360315e-02  2.076797e+02  3.511947e+00  1.756464e+00
</event>
<event>
    12  9999  1.000000e+00  2.272745e+02  7.899282e-03  1.041201e-01
       21    -1     0     0   101   102  0.0000000000e+00  0.0000000000e+00  2.0991710254e+02  2.0991710254e+02  0.0000000000e+00 0. 9.
       21    -1     0     0   103   101  0.0000000000e+00  0.0000000000e+00 -4.7788996776e+02  4.7788996776e+02  0.0000000000e+00 0. 9.
        6     2     1     2   103     0 -4.3998086711e+01 -1.4221457912e+02 -3.7377106362e+02  4.3789597943e+02  1.7287932974e+02  2.557105e-13 9.
       -6     2     1     2     0   102  4.3998086711e+01  1.4221457912e+02  1.0579819840e+02  2.4991109087e+02  1.7059154847e+02  9.740556e-14 9.
       24     2     3     0     0     0 -2.2352356087e+01 -2.7421752125e+01 -6.2972927324e+01  1.0583506287e+02  7.7355611586e+01  9.169317e-14 9.
        5     1     3     0   103     0 -2.1645730624e+01 -1.1479282700e+02 -3.1079813629e+02  3.3206091656e+02  4.8000000000e+00 0. 9.
      -24     2     4     0     0     0  8.8576182145e+01  1.0577995491e+02  4.6836578475e+01  1.6736291671e+02  8.2350117797e+01  6.631934e-14 9.
       -5     1     4     0     0   102 -4.4578095434e+01  3.6434624208e+01  5.8961619927e+01  8.2548174166e+01  4.8000000000e+00 0. 9.
       -1     1     5     0     0   104 -1.9900586031e+01 -5.8655961641e+00 -7.7166380273e+01  7.9907431990e+01  3.3000000000e-01 0. 9.
        2     1     5     0   104     0 -2.4517700562e+00 -2.1556155960e+01  1.4193452949e+01  2.5927630876e+01  3.3000000000e-01 0. 9.
       15     1     7     0     0     0  3.5810860382e+01  5.7766739974e+00 -1.4051663082e+01  3.8940904053e+01  1.7768200000e+00  2.504824e-01 9.
      -16     1     7     0     0     0  5.2765321763e+01  1.0000328091e+02  6.0888241557e+01  1.2842201266e+02  0.0000000000e+00 0. 9.
#pdf   21   21  3.229494e-02  7.352153e-02  2.264118e+02  2.958758e+00  1.205186e+00
</event>
<event>
    12  9999  1.000000e+00  1.911496e+02  7.883651e-03  1.063191e-01
       21    -1     0     0   101   102  0.0000000000e+00  0.0000000000e+00  1.6155680623e+02  1.6155680623e+02  0.0000000000e+00 0. 9.
       21    -1     0     0   102   103  0.0000000000e+00  0.0000000000e+00 -2.4184988158e+02  2.4184988158e+02  0.0000000000e+00 0. 9.
        6     2     1     2   101     0 -7.2784462604e+01  3.4270708619e+01  1.1340816073e+01  1.9086780712e+02  1.7271319064e+02  3.147380e-15 9.
       -6     2     1     2     0   103  7.2784462604e+01 -3.4270708619e+01 -9.1633891421e+01  2.1253888069e+02  1.7408028688e+02  2.109587e-13 9.
       24     2     3     0     0     0 -4.6194646579e+01  7.6518757075e+01 -3.1950155121e+01  1.2461779503e+02  8.0744763730e+01  2.647420e-13 9.
        5     1     3     0   101     0 -2.6589816025e+01 -4.2248048455e+01  4.3290971195e+01  6.6250012087e+01  4.8000000000e+00 0. 9.
      -24     2     4     0     0     0  5.7268789243e+01 -2.9819929062e+00  1.5683674138e+01  9.9579508660e+01  7.9884256317e+01  2.441184e-13 9.
       -5     1     4     0     0   103  1.5515673361e+01 -3.1288715713e+01 -1.0731756556e+02  1.1295937203e+02  4.8000000000e+00 0. 9.
       -3     1     5     0     0   104 -1.3681405948e+01  5.1152456672e+01 -5.5824467125e+01  7.6943978466e+01  5.0000000000e-01 0. 9.
        4     1     5     0   104     0 -3.2513240631e+01  2.5366300402e+01  2.3874312004e+01  4.7673816567e+01  1.5000000000e+00 0. 9.
        1     1     7     0   105     0  1.4233139693e+01  3.6827923463e+01  3.0047784674e+00  3.9598179323e+01  3.3000000000e-01 0. 9.
       -2     1     7     0     0   105  4.3035649550e+01 -3.9809916369e+01  1.2678895671e+01  5.9981329336e+01  3.3000000000e-01 0. 9.
#pdf   21   21  2.485489e-02  3.720767e-02  1.905306e+02  3.808060e+00  2.593500e+00
</event>
<event>
    12  9999  1.000000e+00  1.956148e+02  7.885733e-03  1.060204e-01
       21    -1     0     0   101   102  0.0000000000e+00  0.0000000000e+00  2.4341785256e+02  2.4341785256e+02  0.0000000000e+00 0. 9.
       21    -1     0     0   103   101  0.0000000000e+00  0.0000000000e+00 -1.5746976194e+02  1.5746976194e+02  0.0000000000e+00 0. 9.
        6     2     1     2   103     0 -6.2402547407e+01 -7.0470148605e+01  3.5097539783e+01  2.0011498933e+02  1.7307238916e+02  1.454587e-13 9.
       -6     2     1     2     0   102  6.2402547407e+01  7.0470148605e+01  5.0850550836e+01  2.0077262516e+02  1.6989334515e+02  6.892855e-14 9.
       24     2     3     0     0     0 -2.3591708852e+01  2.3955061006e+01 -9.8682903374e+00  8.8457623800e+01  8.1221637387e+01  8.108142e-14 9.
        5     1     3     0   103     0 -3.8810838555e+01 -9.4425209611e+01  4.4965830121e+01  1.1165736553e+02  4.8000000000e+00 0. 9.
      -24     2     4     0     0     0  2.0994660108e+01  1.0897976292e+02  4.3605227681e+01  1.4356127810e+02  7.9944106786e+01  9.684166e-14 9.
       -5     1     4     0     0   102  4.1407887299e+01 -3.8509614314e+01  7.2453231554e+00  5.7211347063e+01  4.8000000000e+00 0. 9.
      -13     1     5     0     0     0 -4.4004790126e+01  3.5485551418e+01  1.0385216808e+01  5.7476167284e+01  1.0566000000e-01  4.707548e+05 9.
       14     1     5     0     0     0  2.0413081273e+01 -1.1530490412e+01 -2.0253507146e+01  3.0981456517e+01  0.0000000000e+00 0. 9.
        1     1     7     0   104     0  5.0836394118e+01  7.5518574727e+01  3.6884718539e+01  9.8224159235e+01  3.3000000000e-01 0. 9.
       -2     1     7     0     0   104 -2.9841734010e+01  3.3461188192e+01  6.7205091420e+00  4.5337118866e+01  3.3000000000e-01 0. 9.
#pdf   21   21  3.744890e-02  2.422612e-02  1.942263e+02  2.574453e+00  3.895428e+00
</event>
<event>
    12  9999  1.000000e+00  1.935267e+02  7.884765e-03  1.061590e-01
       -1    -1     0     0     0   101  0.0000000000e+00  0.0000000000e+00  8.0318360681e+01  8.0318360681e+01  0.0000000000e+00 0. 9.
        1    -1     0     0   102     0  0.0000000000e+00  0.0000000000e+00 -5.9542897817e+02  5.9542897817e+02  0.0000000000e+00 0. 9.
       -6     2     1     2     0   101 -8.1380055197e+01  3.2229851907e+01 -9.8757703241e+01  2.1601570232e+02  1.7102111847e+02  7.423627e-15 9.
        6     2     1     2   102     0  8.1380055197e+01 -3.2229851907e+01 -4.1635291425e+02  4.5973163654e+02  1.7418941325e+02  7.840835e-14 9.
      -24     2     3     0     0     0 -9.6521048791e+01 -6.6379056556e+00 -1.1549491451e+02  1.7081474540e+02  8.0487435783e+01  4.295300e-14 9.
       -5     1     3     0     0   101  1.5140993594e+01  3.8867757563e+01  1.6737211268e+01  4.5200956915e+01  4.8000000000e+00 0. 9.
       24     2     4     0     0     0  5.2839478777e+01 -1.5125392679e+01 -9.1346039724e+01  1.3299070626e+02  7.9508747673e+01  6.360655e-15 9.
        5     1     4     0   102     0  2.8540576419e+01 -1.7104459228e+01 -3.2500687453e+02  3.2674093028e+02  4.8000000000e+00 0. 9.
        3     1     5     0   103     0 -5.6319228205e+01  2.9843216426e+01 -3.2281931828e+01  7.1448206099e+01  5.0000000000e-01 0. 9.
       -4     1     5     0     0   103 -4.0201820586e+01 -3.6481122082e+01 -8.3212982682e+01  9.9366539306e+01  1.5000000000e+00 0. 9.
      -15     1     7     0     0     0  5.9640458512e+01  1.8127580728e+01 -6.4495020410e+01  8.9712642485e+01  1.7768200000e+00  2.537573e-01 9.
       16     1     7     0     0     0 -6.8009797346e+00 -3.3252973407e+01 -2.6851019314e+01  4.3278063773e+01  0.0000000000e+00 0. 9.
#pdf   -1    1  1.235667e-02  9.160446e-02  1.921190e+02  4.848836e-01  3.613952e-01
</event>
<event>
    12  9999  1.000000e+00  3.194872e+02  7.930216e-03  1.000522e-01
       21    -1     0     0   101   102  0.0000000000e+00  0.0000000000e+00  4.4383712181e+02  4.4383712181e+02  0.0000000000e+00 0. 9.
       21    -1     0     0   102   103  0.0000000000e+00  0.0000000000e+00 -3.0418759916e+02  3.0418759916e+02  0.0000000000e+00 0. 9.
        6     2     1     2   101     0  1.5305344834e+02  2.2259853752e+02 -1.1485056231e+02  3.3984312771e+02  1.7125195717e+02  1.045110e-14 9.
       -6     2     1     2     0   103 -1.5305344834e+02 -2.2259853752e+02  2.5450008495e+02  4.0818159325e+02  1.6990130332e+02  3.833036e-13 9.
       24     2     3     0     0     0  1.0306285145e+02  2.1290557190e+02 -1.3581440981e+02  2.8456622239e+02  8.1127351224e+01  7.441241e-14 9.
        5     1     3     0   101     0  4.9990596892e+01  9.6929656218e+00  2.0963847502e+01  5.5276905324e+01  4.8000000000e+00 0. 9.
      -24     2     4     0     0     0 -4.0658640724e+01 -6.9296352551e+01  4.0751985475e+01  1.2209516798e+02  8.2409927681e+01  7.261524e-14 9.
       -5     1     4     0     0   103 -1.1239480762e+02 -1.5330218497e+02  2.1374809948e+02  2.8608642528e+02  4.8000000000e+00 0. 9.
      -13     1     5     0     0     0 -1.3700565079e+01  1.6224137261e+01 -9.3405324592e+00  2.3198810832e+01  1.0566000000e-01  8.033257e+05 9.
       14     1     5     0     0     0  1.1676341653e+02  1.9668143464e+02 -1.2647387735e+02  2.6136741156e+02  0.0000000000e+00 0. 9.
       13     1     7     0     0     0 -6.2133586562e+01 -3.0293068976e+01  3.4093761202e+01  7.7075601354e+01  1.0566000000e-01  4.279240e+05 9.
      -14     1     7     0     0     0  2.1474945838e+01 -3.9003283575e+01  6.6582242737e+00  4.5019566622e+01  0.0000000000e+00 0. 9.
#pdf   21   21  6.828263e-02  4.679809e-02  3.191268e+02  1.282804e+00  1.983779e+00
</event>
<event>
    12  9999  1.000000e+00  3.078122e+02  7.926823e-03  1.004811e-01
       21    -1     0     0   101   102  0.0000000000e+00  0.0000000000e+00  1.8812250646e+02  1.8812250646e+02  0.0000000000e+00 0. 9.
       21    -1     0     0   103   101  0.0000000000e+00  0.0000000000e+00 -5.3119306104e+02  5.3119306104e+02  0.0000000000e+00 0. 9.
        6     2     1     2   103     0 -3.4446432104e+01  2.4856750709e+02 -2.5105524281e+02  3.9397845272e+02  1.7093251301e+02  1.331510e-13 9.
       -6     2     1     2     0   102  3.4446432104e+01 -2.4856750709e+02 -9.2015311764e+01  3.2533711478e+02  1.8548600592e+02  5.512887e-14 9.
       24     2     3     0     0     0 -6.2139363914e+01  7.3059298612e+01 -1.2419239231e+02  1.7560434127e+02  7.8830024135e+01  3.627678e-13 9.
        5     1     3     0   103     0  2.7692931810e+01  1.7550820847e+02 -1.2686285050e+02  2.1837411145e+02  4.8000000000e+00 0. 9.
      -24     2     4     0     0     0  7.3301763435e+01 -7.0081131978e+01 -4.3600686811e+01  1.3630235930e+02  7.9954985317e+01  1.222465e-14 9.
       -5     1     4     0     0   102 -3.8855331331e+01 -1.7848637511e+02 -4.8414624953e+01  1.8903475549e+02  4.8000000000e+00 0. 9.
      -15     1     5     0     0     0 -4.0828093031e+01  5.6914431172e+01 -2.7477456434e+01  7.5261898445e+01  1.7768200000e+00  9.070011e-03 9.
       16     1     5     0     0     0 -2.1311270883e+01  1.6144867440e+01 -9.6714935876e+01  1.0034244283e+02  0.0000000000e+00 0. 9.
       11     1     7     0     0     0 -1.8915788504e+00 -1.5993686285e+01  1.8696082797e+01  2.4676295989e+01  5.1100000000e-04 0. 9.
      -12     1     7     0     0     0  7.5193342286e+01 -5.4087445693e+01 -6.2296769608e+01  1.1162606331e+02  0.0000000000e+00 0. 9.
#pdf   21   21  2.894192e-02  8.172201e-02  3.036285e+02  3.250727e+00  1.027332e+00
</event>
<event>
    12  9999  1.000000e+00  1.818084e+02  7.879139e-03  1.069733e-01
       21    -1     0     0   101   102  0.0000000000e+00  0.0000000000e+00  1.4711264996e+02  1.4711264996e+02  0.0000000000e+00 0. 9.
       21    -1     0     0   103   101  0.0000000000e+00  0.0000000000e+00 -3.5007135468e+02  3.5007135468e+02  0.0000000000e+00 0. 9.
        6     2     1     2   103     0 -1.1375978723e+01 -6.4385368010e+01 -2.5005226897e+02  3.0883244109e+02  1.6904570668e+02  3.629154e-13 9.
       -6     2     1     2     0   102  1.1375978723e+01  6.4385368010e+01  4.7093564248e+01  1.8835156355e+02  1.7024576116e+02  3.062752e-14 9.
       24     2     3     0     0     0  1.1242904349e+01 -8.9400450796e+01 -1.0927996277e+02  1.6399718837e+02  8.2668760903e+01  2.378097e-13 9.
        5     1     3     0   103     0 -2.2618883072e+01  2.5015082787e+01 -1.4077230619e+02  1.4483525272e+02  4.8000000000e+00 0. 9.
      -24     2     4     0     0     0  4.9154569058e+01  8.2960290503e+01 -4.5668011836e-01  1.2466235432e+02  7.9005775541e+01  1.475754e-13 9.
       -5     1     4     0     0   102 -3.7778590336e+01 -1.8574922493e+01  4.7550244367e+01  6.3689209233e+01  4.8000000000e+00 0. 9.
       -3     1     5     0     0   104 -4.9294412730e+00 -7.3773774309e-01 -6.2018327305e+01  6.2220306733e+01  5.0000000000e-01 0. 9.
        4     1     5     0   104     0  1.6172345622e+01 -8.8662713053e+01 -4.7261635469e+01  1.0177688164e+02  1.5000000000e+00 0. 9.
       15     1     7     0     0     0 -1.4814926071e+01 -5.1370224997e+00 -5.3735276824e-01  1.5789771118e+01  1.7768200000e+00  6.235563e-03 9.
      -16     1     7     0     0     0  6.3969495130e+01  8.8097313002e+01  8.0672649886e-02  1.0887258320e+02  0.0000000000e+00 0. 9.
#pdf   21   21  2.263272e-02  5.385713e-02  1.812494e+02  4.146822e+00  1.763120e+00
</event>
<event>
    12  9999  1.000000e+00  1.284167e+02  7.847966e-03  1.122042e-01
       21    -1     0     0   101   102  0.0000000000e+00  0.0000000000e+00  4.2146027273e+02  4.2146027273e+02  0.0000000000e+00 0. 9.
       21    -1     0     0   102   103  0.0000000000e+00  0.0000000000e+00 -7.0316013678e+01  7.0316013678e+01  0.0000000000e+00 0. 9.
        6     2     1     2   101     0  1.5267999496e+01 -1.6130521755e+01  2.9290301731e+02  3.0776213263e+02  9.1826179227e+01  1.670719e-13 9.
       -6     2     1     2     0   103 -1.5267999496e+01  1.6130521755e+01  5.8241241742e+01  1.8401415378e+02  1.7313538347e+02  5.809318e-14 9.
       24     2     3     0     0     0  8.6500501793e+00 -1.1234705221e+01  2.8008064774e+02  2.9178654394e+02  8.0580245812e+01  3.009995e-15 9.
        5     1     3     0   101     0  6.6179493168e+00 -4.8958165344e+00  1.2822369568e+01  1.5975588691e+01  4.8000000000e+00 0. 9.
      -24     2     4     0     0     0 -4.9772272517e+01 -4.2522775364e+01  4.1646705352e+01  1.1380608617e+02  8.3258102584e+01  5.303262e-15 9.
       -5     1     4     0     0   103  3.4504273021e+01  5.8653297119e+01  1.6594536390e+01  7.0208067611e+01  4.8000000000e+00 0. 9.
       -1     1     5     0     0   104  2.4622763716e+01  2.8309188821e+01  1.0235916477e+02  1.0901925599e+02  3.3000000000e-01 0. 9.
        2     1     5     0   104     0 -1.5972713536e+01 -3.9543894042e+01  1.7772148298e+02  1.8276728795e+02  3.3000000000e-01 0. 9.
        3     1     7     0   105     0 -1.2287484324e+00 -5.3051541681e+01  7.7010738167e+00  5.3623991230e+01  5.0000000000e-01 0. 9.
       -4     1     7     0     0   105 -4.8543524084e+01  1.0528766317e+01  3.3945631535e+01  6.0182094937e+01  1.5000000000e+00 0. 9.
#pdf   21   21  6.484004e-02  1.081785e-02  9.447408e+01  1.492378e+00  7.514809e+00
</event>
<event>
    12  9999  1.000000e+00  2.266368e+02  7.899028e-03  1.041551e-01
       21    -1     0     0   101   102  0.0000000000e+00  0.0000000000e+00  1.4603727028e+02  1.4603727028e+02  0.0000000000e+00 0. 9.
       21    -1     0     0   103   101  0.0000000000e+00  0.0000000000e+00 -3.6336316701e+02  3.6336316701e+02  0.0000000000e+00 0. 9.
        6     2     1     2   103     0 -3.4720483214e+01 -1.4512177504e+02 -6.2905708355e+01  2.3485962488e+02  1.7010606605e+02  7.395941e-14 9.
       -6     2     1     2     0   102  3.4720483214e+01  1.4512177504e+02 -1.5442018838e+02  2.7454081241e+02  1.7105911713e+02  1.810148e-13 9.
       24     2     3     0     0     0 -4.3340423883e+01 -1.0447651765e+01 -2.5604249883e+01  9.4767292247e+01  7.9609775142e+01  1.108079e-13 9.
        5     1     3     0   103     0  8.6199406690e+00 -1.3467412328e+02 -3.7301458473e+01  1.4009233263e+02  4.8000000000e+00 0. 9.
      -24     2     4     0     0     0 -3.5845024937e+01  1.0736777109e+02 -6.2383341900e+01  1.5248067614e+02  8.0907176248e+01  3.181764e-13 9.
       -5     1     4     0     0   102  7.0565508151e+01  3.7754003952e+01 -9.2036846479e+01  1.2206013626e+02  4.8000000000e+00 0. 9.
      -13     1     5     0     0     0 -5.0620744010e+01 -2.5653202985e+01 -4.2499522290e+01  7.0899697506e+01  1.0566000000e-01  1.603747e+05 9.
       14     1     5     0     0     0  7.2803201269e+00  1.5205551220e+01  1.6895272407e+01  2.3867594742e+01  0.0000000000e+00 0. 9.
        1     1     7     0   104     0 -4.1870784725e+01  4.2437972905e+01  3.5811547514e+00  5.9725017599e+01  3.3000000000e-01 0. 9.
       -2     1     7     0     0   104  6.0257597877e+00  6.4929798188e+01 -6.5964496651e+01  9.2755658545e+01  3.3000000000e-01 0. 9.
#pdf   21   21  2.246727e-02  5.590203e-02  2.262784e+02  4.151246e+00  1.665726e+00
</event>
<event>
    12  9999  1.000000e+00  2.226274e+02  7.897414e-03  1.043777e-01
       21    -1     0     0   101   102  0.0000000000e+00  0.0000000000e+00  8.4900973904e+01  8.4900973904e+01  0.0000000000e+00 0. 9.
       21    -1     0     0   102   103  0.0000000000e+00  0.0000000000e+00 -6.3707583419e+02  6.3707583419e+02  0.0000000000e+00 0. 9.
        6     2     1     2   101     0  1.3036585161e+02 -5.9494451075e+01 -3.8160377832e+02  4.4229165174e+02  1.7165551722e+02  2.318490e-13 9.
       -6     2     1     2     0   103 -1.3036585161e+02  5.9494451075e+01 -1.7057108196e+02  2.7968515635e+02  1.6909892876e+02  1.653076e-14 9.
       24     2     3     0     0     0  7.9002104112e+01 -9.5410785547e+01 -3.2744389903e+02  3.5931846231e+02  8.0905499759e+01  1.839645e-14 9.
        5     1     3     0   101     0  5.1363747500e+01  3.5916334472e+01 -5.4159879293e+01  8.2973189430e+01  4.8000000000e+00 0. 9.
      -24     2     4     0     0     0 -6.1479381660e+01  5.2229821134e+01 -2.5486529287e+01  1.1884148065e+02  8.3462960420e+01  2.232466e-14 9.
       -5     1     4     0     0   103 -6.8886469951e+01  7.2646299407e+00 -1.4508455268e+02  1.6084367571e+02  4.8000000000e+00 0. 9.
       -1     1     5     0     0   104 -6.7449383746e+00 -6.1135951933e+00  1.5177757396e-01  9.1105530181e+00  3.3000000000e-01 0. 9.
        2     1     5     0   104     0  8.5747042486e+01 -8.9297190353e+01 -3.2759567660e+02  3.5020790929e+02  3.3000000000e-01 0. 9.
        3     1     7     0   105     0 -1.3670417821e+00 -6.8945517422e+00  2.1277345312e+01  2.2413814278e+01  5.0000000000e-01 0. 9.
       -4     1     7     0     0   105 -6.0112339878e+01  5.9124372876e+01 -4.6763874599e+01  9.6427666368e+01  1.5000000000e+00 0. 9.
#pdf   21   21  1.306169e-02  9.801167e-02  2.216513e+02  6.581616e+00  8.315180e-01
</event>
<event>
    12  9999  1.000000e+00  2.268847e+02  7.899127e-03  1.041415e-01
       21    -1     0     0   101   102  0.0000000000e+00  0.0000000000e+00  1.2252121249e+02  1.2252121249e+02  0.0000000000e+00 0. 9.
       21    -1     0     0   103   101  0.0000000000e+00  0.0000000000e+00 -2.4188728893e+03  2.4188728893e+03  0.0000000000e+00 0. 9.
        6     2     1     2   103     0 -7.2400819822e+00 -1.4386841937e+02 -2.3008730805e+03  2.3117727922e+03  1.7183122296e+02  1.422148e-13 9.
       -6     2     1     2     0   102  7.2400819822e+00  1.4386841937e+02  4.5214037132e+00  2.2962130960e+02  1.7875950843e+02  8.968252e-14 9.
       24     2     3     0     0     0 -4.8543918123e+00 -1.4253676452e+02 -2.3001445660e+03  2.3062018358e+03  8.6957392998e+01  8.614338e-15 9.
        5     1     3     0   103     0 -2.3856901699e+00 -1.3316548467e+00 -7.2851447296e-01  5.5709564309e+00  4.8000000000e+00 0. 9.
      -24     2     4     0     0     0  2.1837121176e+01  1.7000405652e+02 -1.9119198695e+01  1.9117572253e+02  8.2488629702e+01  2.038850e-14 9.
       -5     1     4     0     0   102 -1.4597039194e+01 -2.6135637159e+01  2.3640602408e+01  3.8445587070e+01  4.8000000000e+00 0. 9.
       -1     1     5     0     0   104  2.3748773872e+01 -1.3058147294e+02 -1.6553167456e+03  1.6606291465e+03  3.3000000000e-01 0. 9.
        2     1     5     0   104     0 -2.8603165685e+01 -1.1955291576e+01 -6.4482782048e+02  6.4557268921e+02  3.3000000000e-01 0. 9.
        1     1     7     0   105     0  3.6988884353e+01  8.5578344444e+01  2.2394704338e+01  9.5882544219e+01  3.3000000000e-01 0. 9.
       -2     1     7     0     0   105 -1.5151763177e+01  8.4425712080e+01 -4.1513903034e+01  9.5293178312e+01  3.3000000000e-01 0. 9.
#pdf   21   21  1.884942e-02  3.721343e-01  2.242242e+02  4.845888e+00  4.586605e-02
</event>
<event>
    12  9999  1.000000e+00  1.894073e+02  7.882826e-03  1.064381e-01
       21    -1     0     0   101   102  0.0000000000e+00  0.0000000000e+00  3.5995029805e+02  3.5995029805e+02  0.0000000000e+00 0. 9.
       21    -1     0     0   102   103  0.0000000000e+00  0.0000000000e+00 -2.2018962633e+02  2.2018962633e+02  0.0000000000e+00 0. 9.
        6     2     1     2   101     0 -7.1558928378e+01 -3.7111628826e+01  2.8452391217e+02  3.4193294465e+02  1.7165759178e+02  2.839520e-14 9.
       -6     2     1     2     0   103  7.1558928378e+01  3.7111628826e+01 -1.4476324045e+02  2.3820697973e+02  1.7113800333e+02  1.371725e-13 9.
       24     2     3     0     0     0 -2.4329226266e+01 -8.5902542620e+01  1.9625689593e+02  2.3046409615e+02  8.1398847247e+01  1.290346e-15 9.
        5     1     3     0   101     0 -4.7229702112e+01  4.8790913794e+01  8.8267016238e+01  1.1146884850e+02  4.8000000000e+00 0. 9.
      -24     2     4     0     0     0 -1.2150170865e+01  5.2377042941e+01 -5.9625619361e+01  1.1774245928e+02  8.6122534524e+01  4.143352e-14 9.
       -5     1     4     0     0   103  8.3709099243e+01 -1.5265414115e+01 -8.5137621086e+01  1.2046452045e+02  4.8000000000e+00 0. 9.
       -1     1     5     0     0   104 -1.4894995618e+00  1.5994012512e+01  2.0789765162e+01  2.6274517706e+01  3.3000000000e-01 0. 9.
        2     1     5     0   104     0 -2.2839726704e+01 -1.0189655513e+02  1.7546713077e+02  2.0418957844e+02  3.3000000000e-01 0. 9.
        3     1     7     0   105     0 -7.9596610055e+00  3.3429566221e+01 -8.1507631471e+01  8.8456973094e+01  5.0000000000e-01 0. 9.
       -4     1     7     0     0   105 -4.1905098593e+00  1.8947476720e+01  2.1882012110e+01  2.9285486182e+01  1.5000000000e+00 0. 9.
#pdf   21   21  5.537697e-02  3.387533e-02  1.891723e+02  1.704661e+00  2.846232e+00
</event>
<event>
    12  9999  1.000000e+00  1.810219e+02  7.878748e-03  1.070303e-01
        2    -1     0     0   101     0  0.0000000000e+00  0.0000000000e+00  2.8085642225e+02  2.8085642225e+02  0.0000000000e+00 0. 9.
       -2    -1     0     0     0   102  0.0000000000e+00  0.0000000000e+00 -1.1672037358e+02  1.1672037358e+02  0.0000000000e+00 0. 9.
        6     2     1     2   101     0 -5.2804043481e+01  1.7572751510e+00  7.8046767176e+01  1.9690203472e+02  1.7288076349e+02  2.927480e-13 9.
       -6     2     1     2     0   102  5.2804043481e+01 -1.7572751510e+00  8.6089281489e+01  2.0067476111e+02  1.7340023165e+02  2.324806e-14 9.
       24     2     3     0     0     0 -1.6404383278e+01 -3.6498203917e+01 -1.7543291933e+01  8.7590935822e+01  7.5915625970e+01  1.527423e-13 9.
        5     1     3     0   101     0 -3.6399660202e+01  3.8255479068e+01  9.5590059109e+01  1.0931109890e+02  4.8000000000e+00 0. 9.
      -24     2     4     0     0     0  8.1512565494e+01  2.0061427731e+01  9.7042716741e+00  1.1607012320e+02  7.9569726620e+01  7.840890e-14 9.
       -5     1     4     0     0   102 -2.8708522013e+01 -2.1818702882e+01  7.6385009815e+01  8.4604637911e+01  4.8000000000e+00 0. 9.
       -1     1     5     0     0   103 -4.4041605912e+01 -7.9972176442e+00 -1.7008803990e+01  4.7885559979e+01  3.3000000000e-01 0. 9.
        2     1     5     0   103     0  2.7637222634e+01 -2.8500986272e+01 -5.3448794316e-01  3.9705375842e+01  3.3000000000e-01 0. 9.
       13     1     7     0     0     0  2.6766110103e+00 -2.2382847992e+01 -9.5593415601e+00  2.4485675523e+01  1.0566000000e-01  1.784734e+05 9.
      -14     1     7     0     0     0  7.8835954483e+01  4.2444275723e+01  1.9263613234e+01  9.1584447674e+01  0.0000000000e+00 0. 9.
#pdf    2   -2  4.320868e-02  1.795698e-02  1.807737e+02  6.286563e-01  3.596090e-01
</event>
<event>
    12  9999  1.000000e+00  1.888590e+02  7.882565e-03  1.064758e-01
       21    -1     0     0   101   102  0.0000000000e+00  0.0000000000e+00  8.9442636066e+02  8.9442636066e+02  0.0000000000e+00 0. 9.
       21    -1     0     0   102   103  0.0000000000e+00  0.0000000000e+00 -9.7559942520e+01  9.7559942520e+01  0.0000000000e+00 0. 9.
        6     2     1     2   101     0 -6.5476628506e+01 -4.2585987008e+01  7.8035229576e+02  8.0302819907e+02  1.7263785169e+02  1.952193e-13 9.
       -6     2     1     2     0   103  6.5476628506e+01  4.2585987008e+01  1.6514122381e+01  1.8895810411e+02  1.7126498095e+02  1.747907e-13 9.
       24     2     3     0     0     0 -1.1013963728e+02 -2.9020519490e+01  6.3654293886e+02  6.5175699429e+02  8.1408453801e+01  7.923592e-14 9.
        5     1     3     0   101     0  4.4663008775e+01 -1.3565467517e+01  1.4380935690e+02  1.5127120478e+02  4.8000000000e+00 0. 9.
      -24     2     4     0     0     0  1.0676970109e+02  7.2860712874e+00  7.7638422616e+00  1.3372397250e+02  7.9805812251e+01  2.823832e-14 9.
       -5     1     4     0     0   103 -4.1293072580e+01  3.5299915720e+01  8.7502801197e+00  5.5234131614e+01  4.8000000000e+00 0. 9.
       -3     1     5     0     0   104 -7.1610286696e+01  1.5217164951e+01  2.4069404353e+02  2.5158193071e+02  5.0000000000e-01 0. 9.
        4     1     5     0   104     0 -3.8529350584e+01 -4.4237684441e+01  3.9584889533e+02  4.0017506358e+02  1.5000000000e+00 0. 9.
        3     1     7     0   105     0  3.8915603022e+00 -2.4315142672e+01  8.6002563116e+00  2.6088020496e+01  5.0000000000e-01 0. 9.
       -4     1     7     0     0   105  1.0287814078e+02  3.1601213959e+01 -8.3641404998e-01  1.0763595200e+02  1.5000000000e+00 0. 9.
#pdf   21   21  1.376041e-01  1.500922e-02  1.882351e+02  5.163811e-01  5.882062e+00
</event>
<event>
    12  9999  1.000000e+00  1.724166e+02  7.874367e-03  1.076748e-01
       -2    -1     0     0     0   101  0.0000000000e+00  0.0000000000e+00  3.4493955194e+02  3.4493955194e+02  0.0000000000e+00 0. 9.
        2    -1     0     0   102     0  0.0000000000e+00  0.0000000000e+00 -1.1678938818e+02  1.1678938818e+02  0.0000000000e+00 0. 9.
       -6     2     1     2     0   101  6.7253138605e+00  1.9550229877e+01  2.3238062318e+02  2.8950327523e+02  1.7141747579e+02  2.374200e-14 9.
        6     2     1     2   102     0 -6.7253138605e+00 -1.9550229877e+01 -4.2304594160e+00  1.7222566489e+02  1.7092788399e+02  4.846241e-15 9.
      -24     2     3     0     0     0 -1.9236612324e+01 -4.1566016389e+01  8.9745521172e+01  1.3209606608e+02  8.5424417649e+01  4.663205e-14 9.
       -5     1     3     0     0   101  2.5961926184e+01  6.1116246266e+01  1.4263510201e+02  1.5740720915e+02  4.8000000000e+00 0. 9.
       24     2     4     0     0     0  2.7851915763e+01 -5.2909347673e+01 -4.3924224151e+01  1.0971926116e+02  8.0832236885e+01  1.326786e-13 9.
        5     1     4     0   102     0 -3.4577229624e+01  3.3359117795e+01  3.9693764735e+01  6.2506403731e+01  4.8000000000e+00 0. 9.
        1     1     5     0   103     0  3.3035366264e+01 -2.6844912344e+01  4.1616661397e+01  5.9531841470e+01  3.3000000000e-01 0. 9.
       -2     1     5     0     0   103 -5.2271978588e+01 -1.4721104045e+01  4.8128859775e+01  7.2564224608e+01  3.3000000000e-01 0. 9.
      -13     1     7     0     0     0  2.2909036823e+01 -6.6444045386e+01 -7.6618499947e+00  7.0699011625e+01  1.0566000000e-01  1.239153e+06 9.
       14     1     7     0     0     0  4.9428789403e+00  1.3534697713e+01 -3.6262374157e+01  3.9020249537e+01  0.0000000000e+00 0. 9.
#pdf   -2    2  5.306762e-02  1.796760e-02  1.721737e+02  1.468136e-01  6.876886e-01
</event>
<event>
    12  9999  1.000000e+00  2.002018e+02  7.887823e-03  1.057222e-01
       21    -1     0     0   101   102  0.0000000000e+00  0.0000000000e+00  3.4209096999e+02  3.4209096999e+02  0.0000000000e+00 0. 9.
       21    -1     0     0   102   103  0.0000000000e+00  0.0000000000e+00 -2.4744009677e+02  2.4744009677e+02  0.0000000000e+00 0. 9.
        6     2     1     2   101     0 -8.9427319937e+01 -6.7187408799e+01  2.6062663335e+02  3.2594189051e+02  1.6062527986e+02  3.242229e-13 9.
       -6     2     1     2     0   103  8.9427319937e+01  6.7187408799e+01 -1.6597576013e+02  2.6358917624e+02  1.7152232341e+02  1.105226e-13 9.
       24     2     3     0     0     0 -1.6145283907e+01  1.1173231058e+00  5.8700838678e+01  1.0048045311e+02  7.9928808272e+01  7.606677e-14 9.
        5     1     3     0   101     0 -7.3282036031e+01 -6.8304731905e+01  2.0192579467e+02  2.2546143741e+02  4.8000000000e+00 0. 9.
      -24     2     4     0     0     0  4.1855451653e+01 -2.9505709309e+01 -9.4174491724e+01  1.3400868432e+02  8.0417826799e+01  1.085514e-13 9.
       -5     1     4     0     0   103  4.7571868284e+01  9.6693118108e+01 -7.1801268402e+01  1.2958049192e+02  4.8000000000e+00 0. 9.
      -15     1     5     0     0     0 -3.5507348607e+01  1.7996260779e+01  6.2893763159e+01  7.4454145222e+01  1.7768200000e+00  8.513299e-04 9.
       16     1     5     0     0     0  1.9362064701e+01 -1.6878937673e+01 -4.1929244807e+00  2.6026307885e+01  0.0000000000e+00 0. 9.
        1     1     7     0   104     0  3.2219712630e+01 -2.5350795735e+00 -9.9726607786e+01  1.0483339979e+02  3.3000000000e-01 0. 9.
       -2     1     7     0     0   104  9.6357390230e+00 -2.6970629736e+01  5.5521160623e+00  2.9175284534e+01  3.3000000000e-01 0. 9.
#pdf   21   21  5.262938e-02  3.806771e-02  1.957342e+02  1.799603e+00  2.531469e+00
</event>
<event>
    12  9999  1.000000e+00  1.724191e+02  7.874368e-03  1.076746e-01
       21    -1     0     0   101   102  0.0000000000e+00  0.0000000000e+00  9.2250437352e+01  9.2250437352e+01  0.0000000000e+00 0. 9.
       21    -1     0     0   102   103  0.0000000000e+00  0.0000000000e+00 -4.7627878593e+02  4.7627878593e+02  0.0000000000e+00 0. 9.
        6     2     1     2   101     0 -5.4824225379e+00 -1.8341200612e+01 -3.0205801278e+01  1.7484136232e+02  1.7114512833e+02  4.715184e-14 9.
       -6     2     1     2     0   103  5.4824225379e+00  1.8341200612e+01 -3.5382254730e+02  3.9368786096e+02  1.7156130185e+02  1.752779e-13 9.
       24     2     3     0     0     0 -4.4939816919e+01 -6.3655903302e+01 -2.5648361183e+01  1.1439205702e+02  7.9724796066e+01  6.753154e-14 9.
        5     1     3     0   101     0  3.9457394381e+01  4.5314702690e+01 -4.5574400946e+00  6.0449305302e+01  4.8000000000e+00 0. 9.
      -24     2     4     0     0     0 -4.6064961218e+01 -2.8389331588e+01 -2.6640394267e+02  2.8185795509e+02  7.4464161696e+01  8.612113e-14 9.
       -5     1     4     0     0   103  5.1547383756e+01  4.6730532200e+01 -8.7418604629e+01  1.1182990587e+02  4.8000000000e+00 0. 9.
      -11     1     5     0     0     0 -2.8425415216e+01  6.5466390414e-01 -3.7381699304e+01  4.6966203361e+01  5.1100000000e-04 0. 9.
       12     1     5     0     0     0 -1.6514401702e+01 -6.4310567206e+01  1.1733338121e+01  6.7425853658e+01  0.0000000000e+00 0. 9.
        1     1     7     0   104     0 -8.5213722470e+00 -4.2870457730e+01 -8.0026270379e+01  9.1185540421e+01  3.3000000000e-01 0. 9.
       -2     1     7     0     0   104 -3.7543588971e+01  1.4481126142e+01 -1.8637767229e+02  1.9067241467e+02  3.3000000000e-01 0. 9.
#pdf   21   21  1.419237e-02  7.327366e-02  1.722124e+02  6.156466e+00  1.238386e+00
</event>
<event>
    12  9999  1.000000e+00  2.386845e+02  7.903717e-03  1.035145e-01
       21    -1     0     0   101   102  0.0000000000e+00  0.0000000000e+00  7.2119849155e+02  7.2119849155e+02  0.0000000000e+00 0. 9.
       21    -1     0     0   103   101  0.0000000000e+00  0.0000000000e+00 -1.4219196610e+02  1.4219196610e+02  0.0000000000e+00 0. 9.
        6     2     1     2   103     0  1.6549690803e+02  1.9074260686e+01  1.7671437373e+00  2.3878653373e+02  1.7106382407e+02  6.328368e-14 9.
       -6     2     1     2     0   102 -1.6549690803e+02 -1.9074260686e+01  5.7723938171e+02  6.2460392392e+02  1.7079725990e+02  8.918622e-14 9.
       24     2     3     0     0     0  1.2743766638e+01 -1.0406248879e+01  4.0888895894e+00  8.3123265249e+01  8.1376068986e+01  1.609187e-13 9.
        5     1     3     0   103     0  1.5275314140e+02  2.9480509566e+01 -2.3217458520e+00  1.5566326848e+02  4.8000000000e+00 0. 9.
      -24     2     4     0     0     0 -1.8211974933e+02 -3.2571348113e+01  4.2144232099e+02  4.6726907606e+02  8.0611808752e+01  3.528848e-14 9.
       -5     1     4     0     0   102  1.6622841292e+01  1.3497087427e+01  1.5579706072e+02  1.5733484786e+02  4.8000000000e+00 0. 9.
       -3     1     5     0     0   104  2.0664832920e+01  5.1112644212e+00 -3.4622019045e+01  4.0645965930e+01  5.0000000000e-01 0. 9.
        4     1     5     0   104     0 -7.9210662823e+00 -1.5517513301e+01  3.8710908635e+01  4.2477299319e+01  1.5000000000e+00 0. 9.
        3     1     7     0   105     0 -6.3368238094e+01 -2.8325404689e+01  2.4421130566e+02  2.5388437124e+02  5.0000000000e-01 0. 9.
       -4     1     7     0     0   105 -1.1875151123e+02 -4.2459434246e+00  1.7723101533e+02  2.1338470482e+02  1.5000000000e+00 0. 9.
#pdf   21   21  1.109536e-01  2.187569e-02  2.385891e+02  6.930360e-01  4.245612e+00
</event>
<event>
    12  9999  1.000000e+00  1.752012e+02  7.875808e-03  1.074619e-01
       21    -1     0     0   101   102  0.0000000000e+00  0.0000000000e+00  3.6046838583e+01  3.6046838583e+01  0.0000000000e+00 0. 9.
       21    -1     0     0   103   101  0.0000000000e+00  0.0000000000e+00 -1.0367696887e+03  1.0367696887e+03  0.0000000000e+00 0. 9.
        6     2     1     2   103     0  4.1221107778e-02  3.7102123537e+01 -7.2501144424e+02  7.4567456379e+02  1.7033024255e+02  4.446051e-13 9.
       -6     2     1     2     0   102 -4.1221107778e-02 -3.7102123537e+01 -2.7571140583e+02  3.2714196345e+02  1.7212935739e+02  1.808851e-13 9.
       24     2     3     0     0     0 -1.5980764258e+01  1.2028980895e+01 -1.5660230918e+02  1.7646691159e+02  7.8842922565e+01  8.169385e-15 9.
        5     1     3     0   103     0  1.6021985365e+01  2.5073142642e+01 -5.6840913506e+02  5.6920765219e+02  4.8000000000e+00 0. 9.
      -24     2     4     0     0     0  6.4396312126e+01 -8.3371027895e+00 -1.8725296142e+02  2.1388315145e+02  8.0411060285e+01  1.380813e-15 9.
       -5     1     4     0     0   102 -6.4437533234e+01 -2.8765020747e+01 -8.8458444409e+01  1.1325881200e+02  4.8000000000e+00 0. 9.
       -3     1     5     0     0   104  7.9401945747e+00 -2.2020949054e+01 -1.2649133987e+01  2.6612393311e+01  5.0000000000e-01 0. 9.
        4     1     5     0   104     0 -2.3920958832e+01  3.4049929949e+01 -1.4395317519e+02  1.4985451828e+02  1.5000000000e+00 0. 9.
       13     1     7     0     0     0 -4.6249487281e+00  1.4597507249e+01 -9.5890326071e+01  9.7105319971e+01  1.0566000000e-01  2.407337e+06 9.
      -14     1     7     0     0     0  6.9021260854e+01 -2.2934610039e+01 -9.1362635349e+01  1.1677783148e+02  0.0000000000e+00 0. 9.
#pdf   21   21  5.545667e-03  1.595030e-01  1.743243e+02  1.246136e+01  4.107666e-01
</event>
<event>
    12  9999  1.000000e+00  2.975079e+02  7.923722e-03  1.008767e-01
       21    -1     0     0   101   102  0.0000000000e+00  0.0000000000e+00  3.4318885003e+02  3.4318885003e+02  0.0000000000e+00 0. 9.
       21    -1     0     0   103   101  0.0000000000e+00  0.0000000000e+00 -4.2980990304e+02  4.2980990304e+02  0.0000000000e+00 0. 9.
        6     2     1     2   103     0 -1.9920754913e-01 -2.4410015440e+02 -2.8773359998e+02  4.1384202151e+02  1.6996961242e+02  4.580348e-14 9.
       -6     2     1     2     0   102  1.9920754913e-01  2.4410015440e+02  2.0111254697e+02  3.5915673156e+02  1.7018336057e+02  7.857322e-14 9.
       24     2     3     0     0     0  1.4164006945e+01 -1.3626962049e+02 -2.5393394909e+02  2.9982806458e+02  8.1513123144e+01  3.185927e-13 9.
        5     1     3     0   103     0 -1.4363214494e+01 -1.0783053392e+02 -3.3799650882e+01  1.1401395693e+02  4.8000000000e+00 0. 9.
      -24     2     4     0     0     0 -3.7296592962e+01  2.0465768727e+02  9.8697269384e+01  2.4308101338e+02  7.7919338267e+01  1.045629e-14 9.
       -5     1     4     0     0   102  3.7495800511e+01  3.9442467134e+01  1.0241527758e+02  1.1607571818e+02  4.8000000000e+00 0. 9.
       -3     1     5     0     0   104  2.3055981451e-02 -8.1477423065e+01 -7.0126728581e+01  1.0750153051e+02  5.0000000000e-01 0. 9.
        4     1     5     0   104     0  1.4140950964e+01 -5.4792197421e+01 -1.8380722051e+02  1.9232653406e+02  1.5000000000e+00 0. 9.
        1     1     7     0   105     0 -4.0129416037e+01  1.0453332212e+02  8.7868103206e+01  1.4233235024e+02  3.3000000000e-01 0. 9.
       -2     1     7     0     0   105  2.8328230750e+00  1.0012436515e+02  1.0829166178e+01  1.0074866313e+02  3.3000000000e-01 0. 9.
#pdf   21   21  5.279828e-02  6.612460e-02  2.974468e+02  1.743484e+00  1.341315e+00
</event>
<event>
    12  9999  1.000000e+00  1.861232e+02  7.881251e-03  1.066661e-01
       21    -1     0     0   101   102  0.0000000000e+00  0.0000000000e+00  2.3289785604e+02  2.3289785604e+02  0.0000000000e+00 0. 9.
       21    -1     0     0   103   101  0.0000000000e+00  0.0000000000e+00 -1.5399370745e+02  1.5399370745e+02  0.0000000000e+00 0. 9.
        6     2     1     2   103     0 -5.1321306521e+01 -5.3268028903e+01  3.7801925933e+00  1.8640127897e+02  1.7105492551e+02  3.025241e-13 9.
       -6     2     1     2     0   102  5.1321306521e+01  5.3268028903e+01  7.5123955994e+01  2.0049028452e+02  1.7053265381e+02  1.442297e-13 9.
       24     2     3     0     0     0 -8.2782733708e+01 -3.8875887544e+01 -4.2856870464e+01  1.2813455791e+02  7.8850732089e+01  4.553414e-14 9.
        5     1     3     0   103     0  3.1461427187e+01 -1.4392141359e+01  4.6637063058e+01  5.8266721069e+01  4.8000000000e+00 0. 9.
      -24     2     4     0     0     0  1.0905381373e+01  6.3130277426e+01  1.0700794905e+02  1.4785626543e+02  7.9412938479e+01  3.733575e-14 9.
       -5     1     4     0     0   102  4.0415925148e+01 -9.8622485226e+00 -3.1883993055e+01  5.2634019081e+01  4.8000000000e+00 0. 9.
       -1     1     5     0     0   104 -7.4069074152e+01 -4.7664095035e+01 -6.0300366249e+01  1.0674425873e+02  3.3000000000e-01 0. 9.
        2     1     5     0   104     0 -8.7136595564e+00  8.7882074916e+00  1.7443495784e+01  2.1390299179e+01  3.3000000000e-01 0. 9.
       15     1     7     0     0     0 -4.7377202800e+00  7.9240499545e+01  7.9713631123e+01  1.1251187865e+02  1.7768200000e+00  4.570968e-02 9.
      -16     1     7     0     0     0  1.5643101653e+01 -1.6110222119e+01  2.7294317925e+01  3.5344386783e+01  0.0000000000e+00 0. 9.
#pdf   21   21  3.583044e-02  2.369134e-02  1.858837e+02  2.695586e+00  3.978882e+00
</event>
<event>
    12  9999  1.000000e+00  4.017824e+02  7.951171e-03  9.749101e-02
       21    -1     0     0   101   102  0.0000000000e+00  0.0000000000e+00  1.0233547140e+03  1.0233547140e+03  0.0000000000e+00 0. 9.
       21    -1     0     0   103   101  0.0000000000e+00  0.0000000000e+00 -1.6729202380e+02  1.6729202380e+02  0.0000000000e+00 0. 9.
        6     2     1     2   103     0  3.0851638260e+02  1.9540113186e+02  2.8458273171e+02  4.9134920754e+02  1.6453799532e+02  2.117332e-13 9.
       -6     2     1     2     0   102 -3.0851638260e+02 -1.9540113186e+02  5.7147995850e+02  6.9929753026e+02  1.7048088515e+02  2.517805e-14 9.
       24     2     3     0     0     0  2.6764376309e+02  1.4026607489e+02  2.8427247568e+02  4.2254817709e+02  8.0177090510e+01  1.977350e-13 9.
        5     1     3     0   103     0  4.0872619506e+01  5.5135056972e+01  3.1025602114e-01  6.8801030453e+01  4.8000000000e+00 0. 9.
      -24     2     4     0     0     0 -1.9457184396e+02 -1.6404233216e+02  4.8251304292e+02  5.5129454288e+02  7.9616249764e+01  8.430714e-14 9.
       -5     1     4     0     0   102 -1.1394453864e+02 -3.1358799699e+01  8.8966915583e+01  1.4800298738e+02  4.8000000000e+00 0. 9.
       -1     1     5     0     0   104  1.3963484501e+02  5.6867372904e+01  9.0710204615e+01  1.7595521635e+02  3.3000000000e-01 0. 9.
        2     1     5     0   104     0  1.2800891808e+02  8.3398701988e+01  1.9356227107e+02  2.4659296073e+02  3.3000000000e-01 0. 9.
        3     1     7     0   105     0 -1.6622344483e+02 -1.5113138452e+02  3.5572424501e+02  4.2072665412e+02  5.0000000000e-01 0. 9.
       -4     1     7     0     0   105 -2.8348399129e+01 -1.2910947643e+01  1.2678879790e+02  1.3056788876e+02  1.5000000000e+00 0. 9.
#pdf   21   21  1.574392e-01  2.573723e-02  4.005455e+02  3.730853e-01  3.599669e+00
</event>
<event>
    12  9999  1.000000e+00  1.815041e+02  7.878988e-03  1.069953e-01
       -2    -1     0     0     0   101  0.0000000000e+00  0.0000000000e+00  4.3411704496e+02  4.3411704496e+02  0.0000000000e+00 0. 9.
        2    -1     0     0   102     0  0.0000000000e+00  0.0000000000e+00 -7.6216404352e+01  7.6216404352e+01  0.0000000000e+00 0. 9.
       -6     2     1     2     0   101  5.3577881596e+01 -6.7184485217e+00  1.9555898440e+02  2.6669161901e+02  1.7310510195e+02  2.484918e-13 9.
        6     2     1     2   102     0 -5.3577881596e+01  6.7184485217e+00  1.6234165621e+02  2.4364183031e+02  1.7346700317e+02  3.106083e-13 9.
      -24     2     3     0     0     0  7.5656601676e+00 -1.0537435351e+00  1.8364020191e+01  8.3469598648e+01  8.1065325951e+01  4.520697e-15 9.
       -5     1     3     0     0   101  4.6012221428e+01 -5.6647049865e+00  1.7719496421e+02  1.8322202036e+02  4.8000000000e+00 0. 9.
       24     2     4     0     0     0  3.7452567466e+01 -2.7858114985e+00  9.1760163078e+01  1.2796270173e+02  8.0895426021e+01  4.179034e-14 9.
        5     1     4     0   102     0 -9.1030449062e+01  9.5042600202e+00  7.0581493130e+01  1.1567912857e+02  4.8000000000e+00 0. 9.
       11     1     5     0     0     0  2.0879565452e+01 -3.1009119071e+01  3.0771629421e+01  4.8419158362e+01  5.1100000000e-04 0. 9.
      -12     1     5     0     0     0 -1.3313905285e+01  2.9955375536e+01 -1.2407609229e+01  3.5050440286e+01  0.0000000000e+00 0. 9.
       -1     1     7     0     0   103 -2.0875897659e+01 -1.8826603075e+01  2.2542424969e+01  3.6034898500e+01  3.3000000000e-01 0. 9.
        2     1     7     0   103     0  5.8328465125e+01  1.6040791576e+01  6.9217738109e+01  9.1927803233e+01  3.3000000000e-01 0. 9.
#pdf   -2    2  6.678724e-02  1.172560e-02  1.813315e+02  1.149785e-01  7.454824e-01
</event>
<event>
    12  9999  1.000000e+00  1.942371e+02  7.885096e-03  1.061117e-01
       21    -1     0     0   101   102  0.0000000000e+00  0.0000000000e+00  5.6349098115e+02  5.6349098115e+02  0.0000000000e+00 0. 9.
       21    -1     0     0   102   103  0.0000000000e+00  0.0000000000e+00 -6.7099522457e+01  6.7099522457e+01  0.0000000000e+00 0. 9.
        6     2     1     2   101     0  8.7521088082e+01 -2.7027884328e+01  2.6307755443e+02  3.2711014829e+02  1.7146662089e+02  1.627747e-13 9.
       -6     2     1     2     0   103 -8.7521088082e+01  2.7027884328e+01  2.3331390426e+02  3.0348035531e+02  1.7109792737e+02  1.180760e-14 9.
       24     2     3     0     0     0 -7.9236532106e+00  2.4848250326e+01  1.1466528242e+02  1.4312625098e+02  8.1589073423e+01  3.284338e-13 9.
        5     1     3     0   101     0  9.5444741293e+01 -5.1876134654e+01  1.4841227201e+02  1.8398389731e+02  4.8000000000e+00 0. 9.
      -24     2     4     0     0     0 -1.0858828683e+02  1.8243739019e+00  1.0658708606e+02  1.7247741545e+02  8.1196721299e+01  3.268048e-14 9.
       -5     1     4     0     0   103  2.1067198747e+01  2.5203510426e+01  1.2672681820e+02  1.3100293986e+02  4.8000000000e+00 0. 9.
       -3     1     5     0     0   104 -1.8739852452e+01  1.3514334517e+01  1.2311348654e+02  1.2526372131e+02  5.0000000000e-01 0. 9.
        4     1     5     0   104     0  1.0816199242e+01  1.1333915809e+01 -8.4482041163e+00  1.7862529675e+01  1.5000000000e+00 0. 9.
        1     1     7     0   105     0 -1.2019313433e+01 -1.7278826195e+01  5.9968478279e+01  6.3555873192e+01  3.3000000000e-01 0. 9.
       -2     1     7     0     0   105 -9.6568973397e+01  1.9103200097e+01  4.6618607778e+01  1.0892154226e+02  3.3000000000e-01 0. 9.
#pdf   21   21  8.669092e-02  1.032300e-02  1.940746e+02  9.922618e-01  7.919567e+00
</event>
<event>
    12  9999  1.000000e+00  2.143878e+02  7.894005e-03  1.048513e-01
       21    -1     0     0   101   102  0.0000000000e+00  0.0000000000e+00  8.8870715484e+01  8.8870715484e+01  0.0000000000e+00 0. 9.
       21    -1     0     0   103   101  0.0000000000e+00  0.0000000000e+00 -5.9842413748e+02  5.9842413748e+02  0.0000000000e+00 0. 9.
        6     2     1     2   103     0 -4.5529068900e+00 -1.3116474660e+02 -1.2776697906e+02  2.4924659767e+02  1.6904007159e+02  2.140730e-14 9.
       -6     2     1     2     0   102  4.5529068900e+00  1.3116474660e+02 -3.8178644294e+02  4.3804825529e+02  1.7000137130e+02  2.712886e-13 9.
       24     2     3     0     0     0 -1.2103436921e+01 -1.6172587902e+02 -9.9588543226e+01  2.0672533753e+02  8.0720097285e+01  3.562941e-13 9.
        5     1     3     0   103     0  7.5505300307e+00  3.0561132416e+01 -2.8178435836e+01  4.2521260147e+01  4.8000000000e+00 0. 9.
      -24     2     4     0     0     0  5.0310035901e+00  8.7743445061e+00 -9.0403848264e+01  1.2196836732e+02  8.1247318281e+01  1.246251e-13 9.
       -5     1     4     0     0   102 -4.7809670005e-01  1.2239040209e+02 -2.9138259467e+02  3.1607988797e+02  4.8000000000e+00 0. 9.
       -3     1     5     0     0   104 -1.1170243315e+01 -1.0631908961e+01  1.1446782485e+01  1.9211732174e+01  5.0000000000e-01 0. 9.
        4     1     5     0   104     0 -9.3319360613e-01 -1.5109397005e+02 -1.1103532571e+02  1.8751360535e+02  1.5000000000e+00 0. 9.
        1     1     7     0   105     0 -2.6417192832e+01 -2.2591549911e+01 -2.4635303072e+01  4.2605789066e+01  3.3000000000e-01 0. 9.
       -2     1     7     0     0   105  3.1448196422e+01  3.1365894417e+01 -6.5768545192e+01  7.9362578256e+01  3.3000000000e-01 0. 9.
#pdf   21   21  1.367242e-02  9.206525e-02  2.140081e+02  6.343491e+00  9.080810e-01
</event>
<event>
    12  9999  1.000000e+00  2.784226e+02  7.917691e-03  1.016562e-01
       21    -1     0     0   101   102  0.0000000000e+00  0.0000000000e+00  8.7367514807e+02  8.7367514807e+02  0.0000000000e+00 0. 9.
       21    -1     0     0   103   101  0.0000000000e+00  0.0000000000e+00 -1.6824917144e+02  1.6824917144e+02  0.0000000000e+00 0. 9.
        6     2     1     2   103     0 -1.3868783453e+02  1.7027955253e+02 -5.4291410706e+00  2.7849611137e+02  1.7117583654e+02  9.512002e-14 9.
       -6     2     1     2     0   102  1.3868783453e+02 -1.7027955253e+02  7.1085511769e+02  7.6342820814e+02  1.7110870573e+02  1.826390e-13 9.
       24     2     3     0     0     0 -6.4700984193e+01  1.2453942861e+02  5.7348949605e+01  1.7111668304e+02  7.9345639826e+01  2.613160e-14 9.
        5     1     3     0   103     0 -7.3986850338e+01  4.5740123923e+01 -6.2778090676e+01  1.0737942833e+02  4.8000000000e+00 0. 9.
      -24     2     4     0     0     0  5.7527624466e+01 -1.1669312347e+02  5.8812523936e+02  6.0676248721e+02  7.3093816975e+01  4.563330e-14 9.
       -5     1     4     0     0   102  8.1160210064e+01 -5.3586429060e+01  1.2272987834e+02  1.5666572093e+02  4.8000000000e+00 0. 9.
      -11     1     5     0     0     0  1.3497758410e+01  9.6528550574e-02  9.6660956729e+00  1.6602174727e+01  5.1100000000e-04 0. 9.
       12     1     5     0     0     0 -7.8198742602e+01  1.2444290006e+02  4.7682853932e+01  1.5451450831e+02  0.0000000000e+00 0. 9.
       15     1     7     0     0     0  2.6712031729e+01  6.9205029187e-01  8.0771678050e+01  8.5095432527e+01  1.7768200000e+00  3.035009e-03 9.
      -16     1     7     0     0     0  3.0815592737e+01 -1.1738517376e+02  5.0735356131e+02  5.2166705469e+02  0.0000000000e+00 0. 9.
#pdf   21   21  1.344116e-01  2.588449e-02  2.784019e+02  5.093261e-01  3.624644e+00
</event>
<event>
    12  9999  1.000000e+00  1.851209e+02  7.880764e-03  1.067366e-01
       21    -1     0     0   101   102  0.0000000000e+00  0.0000000000e+00  9.9958818523e+01  9.9958818523e+01  0.0000000000e+00 0. 9.
       21    -1     0     0   103   101  0.0000000000e+00  0.0000000000e+00 -1.4560948038e+03  1.4560948038e+03  0.0000000000e+00 0. 9.
        6     2     1     2   103     0  4.4813409403e+01  5.4149961100e+01 -1.3578153327e+03  1.3702915228e+03  1.7057526163e+02  1.020330e-13 9.
       -6     2     1     2     0   102 -4.4813409403e+01 -5.4149961100e+01  1.6793473674e+00  1.8576209955e+02  1.7194265751e+02  3.731552e-14 9.
       24     2     3     0     0     0 -3.5466816472e+01  2.3378984159e+01 -5.0486748141e+02  5.1300811304e+02  8.0508870855e+01  7.416347e-14 9.
        5     1     3     0   103     0  8.0280225875e+01  3.0770976942e+01 -8.5294785129e+02  8.5728340979e+02  4.8000000000e+00 0. 9.
      -24     2     4     0     0     0 -7.2938031161e+01 -8.8514193959e+01  8.9669953601e+00  1.4050677210e+02  8.0666145800e+01  3.327762e-14 9.
       -5     1     4     0     0   102  2.8124621758e+01  3.4364232859e+01 -7.2876479927e+00  4.5255327446e+01  4.8000000000e+00 0. 9.
       -1     1     5     0     0   104  1.9826895343e+00 -1.6182786923e+01 -2.3709816889e+01  2.8776343884e+01  3.3000000000e-01 0. 9.
        2     1     5     0   104     0 -3.7449506006e+01  3.9561771082e+01 -4.8115766452e+02  4.8423176915e+02  3.3000000000e-01 0. 9.
        3     1     7     0   105     0 -2.1663134930e+01 -4.3325681103e+01  4.2440249757e+01  6.4403655622e+01  5.0000000000e-01 0. 9.
       -2     1     7     0     0   105 -5.1274896231e+01 -4.5188512856e+01 -3.3473254397e+01  7.6103116478e+01  3.3000000000e-01 0. 9.
#pdf   21   21  1.537828e-02  2.240146e-01  1.844895e+02  5.766309e+00  2.147538e-01
</event>
<event>
    12  9999  1.000000e+00  1.970824e+02  7.886407e-03  1.059240e-01
       21    -1     0     0   101   102  0.0000000000e+00  0.0000000000e+00  1.4319908375e+02  1.4319908375e+02  0.0000000000e+00 0. 9.
       21    -1     0     0   102   103  0.0000000000e+00  0.0000000000e+00 -2.8951308245e+02  2.8951308245e+02  0.0000000000e+00 0. 9.
        6     2     1     2   101     0 -4.8597015421e+01  8.6998346094e+01 -1.2771529860e+02  2.3535059545e+02  1.7072880001e+02  4.562194e-14 9.
       -6     2     1     2     0   103  4.8597015421e+01 -8.6998346094e+01 -1.8598700106e+01  1.9736157075e+02  1.6933781571e+02  1.187916e-14 9.
       24     2     3     0     0     0  3.0888445577e+01  7.8315718936e+01 -8.7798500398e+01  1.4585357146e+02  8.0481300519e+01  6.371040e-16 9.
        5     1     3     0   101     0 -7.9485460999e+01  8.6826271574e+00 -3.9916798204e+01  8.9497023992e+01  4.8000000000e+00 0. 9.
      -24     2     4     0     0     0  7.1097973836e+01 -8.4845775773e+01  3.2889910016e+01  1.4092537969e+02  8.0774308477e+01  1.618990e-14 9.
       -5     1     4     0     0   103 -2.2500958415e+01 -2.1525703213e+00 -5.1488610122e+01  5.6436191056e+01  4.8000000000e+00 0. 9.
       -1     1     5     0     0   104 -1.6900182762e+01  4.7263075489e+01 -1.3063108828e+01  5.1866831351e+01  3.3000000000e-01 0. 9.
        2     1     5     0   104     0  4.7788628339e+01  3.1052643447e+01 -7.4735391570e+01  9.3986740111e+01  3.3000000000e-01 0. 9.
       13     1     7     0     0     0  6.4719009544e+00 -4.4241798869e+01  4.5242565566e+01  6.3609143778e+01  1.0566000000e-01  1.218475e+06 9.
      -14     1     7     0     0     0  6.4626072882e+01 -4.0603976904e+01 -1.2352655551e+01  7.7316235912e+01  0.0000000000e+00 0. 9.
#pdf   21   21  2.203063e-02  4.454047e-02  1.964833e+02  4.239727e+00  2.153220e+00
</event>
<event>
    12  9999  1.000000e+00  1.836669e+02  7.880054e-03  1.068399e-01
       21    -1     0     0   101   102  0.0000000000e+00  0.0000000000e+00  2.5185867069e+02  2.5185867069e+02  0.0000000000e+00 0. 9.
       21    -1     0     0   102   103  0.0000000000e+00  0.0000000000e+00 -2.2121119103e+02  2.2121119103e+02  0.0000000000e+00 0. 9.
        6     2     1     2   101     0  6.1398418750e+01 -2.5934104187e+01  1.6389031925e+02  2.4610648657e+02  1.7107314928e+02  2.222052e-14 9.
       -6     2     1     2     0   103 -6.1398418750e+01  2.5934104187e+01 -1.3324283960e+02  2.2696337515e+02  1.7122025514e+02  2.941952e-14 9.
       24     2     3     0     0     0 -1.0436164276e+01  1.5647262860e+01  2.6448734719e+01  8.5475086893e+01  7.9074044738e+01  3.573324e-13 9.
        5     1     3     0   101     0  7.1834583026e+01 -4.1581367046e+01  1.3744158453e+02  1.6063139968e+02  4.8000000000e+00 0. 9.
      -24     2     4     0     0     0 -5.4055119377e+01 -1.5098550163e+01 -1.5208265166e+02  1.8096792660e+02  8.0438394902e+01  1.592953e-13 9.
       -5     1     4     0     0   103 -7.3432993731e+00  4.1032654350e+01  1.8839812062e+01  4.5995448548e+01  4.8000000000e+00 0. 9.
       -1     1     5     0     0   104  2.5369334246e+01  3.0955633598e+01  2.3518509354e+01  4.6422877483e+01  3.3000000000e-01 0. 9.
        2     1     5     0   104     0 -3.5805498522e+01 -1.5308370739e+01  2.9302253646e+00  3.9052209410e+01  3.3000000000e-01 0. 9.
       13     1     7     0     0     0  1.2240537280e+01  1.9406153549e+01 -2.9109076299e+01  3.7064525297e+01  1.0566000000e-01  7.078483e+04 9.
      -14     1     7     0     0     0 -6.6295656657e+01 -3.4504703712e+01 -1.2297357536e+02  1.4390340130e+02  0.0000000000e+00 0. 9.
#pdf   21   21  3.874749e-02  3.403249e-02  1.835984e+02  2.494359e+00  2.836880e+00
</event>
<event>
    12  9999  1.000000e+00  1.809307e+02  7.878703e-03  1.070369e-01
       21    -1     0     0   101   102  0.0000000000e+00  0.0000000000e+00  2.8175545879e+02  2.8175545879e+02  0.0000000000e+00 0. 9.
       21    -1     0     0   102   103  0.0000000000e+00  0.0000000000e+00 -1.1766388603e+02  1.1766388603e+02  0.0000000000e+00 0. 9.
        6     2     1     2   101     0  1.1708535053e+01 -5.2175407143e+01  1.0520820638e+02  2.1101212199e+02  1.7492280021e+02  9.978459e-14 9.
       -6     2     1     2     0   103 -1.1708535053e+01  5.2175407143e+01  5.8883366381e+01  1.8840722283e+02  1.7079422670e+02  1.764043e-13 9.
       24     2     3     0     0     0 -3.7765881970e+01 -5.6807521674e+01  1.1923336075e+02  1.5915733069e+02  8.0381000472e+01  4.348947e-15 9.
        5     1     3     0   101     0  4.9474417023e+01  4.6321145307e+00 -1.4025154377e+01  5.1854791293e+01  4.8000000000e+00 0. 9.
      -24     2     4     0     0     0  7.4910512885e+00  2.9070181160e+01 -3.3224450364e+01  9.1405338885e+01  7.9686138020e+01  1.184356e-13 9.
       -5     1     4     0     0   103 -1.9199586341e+01  2.3105225983e+01  9.2107816745e+01  9.7001883946e+01  4.8000000000e+00 0. 9.
       -1     1     5     0     0   104  1.9649371417e+01 -4.1353541216e+01  4.7289382039e+01  6.5822547215e+01  3.3000000000e-01 0. 9.
        2     1     5     0   104     0 -5.7415253387e+01 -1.5453980458e+01  7.1943978715e+01  9.3334783477e+01  3.3000000000e-01 0. 9.
        3     1     7     0   105     0 -2.3280540302e+01  3.3206293916e+01 -4.2717098682e+01  5.8903667392e+01  5.0000000000e-01 0. 9.
       -4     1     7     0     0   105  3.0771591591e+01 -4.1361127565e+00  9.4926483178e+00  3.2501671493e+01  1.5000000000e+00 0. 9.
#pdf   21   21  4.334699e-02  1.810214e-02  1.789694e+02  2.226506e+00  5.033794e+00
</event>
<event>
    12  9999  1.000000e+00  1.896187e+02  7.882927e-03  1.064236e-01
       21    -1     0     0   101   102  0.0000000000e+00  0.0000000000e+00  1.3752348193e+02  1.3752348193e+02  0.0000000000e+00 0. 9.
       21    -1     0     0   103   101  0.0000000000e+00  0.0000000000e+00 -2.6264125102e+02  2.6264125102e+02  0.0000000000e+00 0. 9.
        6     2     1     2   103     0 -8.8409096940e+01 -4.7476027887e+00 -4.8446372024e+01  1.9253888197e+02  1.6396786866e+02  3.604862e-14 9.
       -6     2     1     2     0   102  8.8409096940e+01  4.7476027887e+00 -7.6671397071e+01  2.0762585098e+02  1.7143885999e+02  4.882200e-13 9.
       24     2     3     0     0     0 -6.6055871361e+01  1.3112132690e+01 -9.2800140825e+01  1.3953950790e+02  7.9524222487e+01  1.359568e-13 9.
        5     1     3     0   103     0 -2.2353225579e+01 -1.7859735479e+01  4.4353768801e+01  5.2999374072e+01  4.8000000000e+00 0. 9.
      -24     2     4     0     0     0  8.2719823586e+01  1.8498526534e+01 -1.1496129969e+02  1.6626630097e+02  8.5109445498e+01  5.241494e-14 9.
       -5     1     4     0     0   102  5.6892733546e+00 -1.3750923745e+01  3.8289902617e+01  4.1359550016e+01  4.8000000000e+00 0. 9.
       -3     1     5     0     0   104  1.8231910064e+01  1.4364771865e+00 -1.0229942163e+01  2.0961100352e+01  5.0000000000e-01 0. 9.
        4     1     5     0   104     0 -8.4287781425e+01  1.1675655504e+01 -8.2570198662e+01  1.1857840755e+02  1.5000000000e+00 0. 9.
        3     1     7     0   105     0  4.3228817488e+01 -1.5947139079e+01 -7.4811503238e+00  4.6682539738e+01  5.0000000000e-01 0. 9.
       -4     1     7     0     0   105  3.9491006098e+01  3.4445665613e+01 -1.0748014936e+02  1.1958376123e+02  1.5000000000e+00 0. 9.
#pdf   21   21  2.115746e-02  4.040635e-02  1.863442e+02  4.398369e+00  2.388734e+00
</event>
<event>
    12  9999  1.000000e+00  2.122745e+02  7.893110e-03  1.049764e-01
       21    -1     0     0   101   102  0.0000000000e+00  0.0000000000e+00  9.7778811170e+01  9.7778811170e+01  0.0000000000e+00 0. 9.
       21    -1     0     0   103   101  0.0000000000e+00  0.0000000000e+00 -5.2025862053e+02  5.2025862053e+02  0.0000000000e+00 0. 9.
        6     2     1     2   103     0  1.0083024276e+02 -7.6807054267e+01 -1.0659397187e+02  2.3731725994e+02  1.6997395561e+02  1.314294e-13 9.
       -6     2     1     2     0   102 -1.0083024276e+02  7.6807054267e+01 -3.1588583748e+02  3.8072017176e+02  1.7058114029e+02  9.470400e-14 9.
       24     2     3     0     0     0  3.5458253724e+01 -2.9337528560e+01 -1.2883374891e+02  1.5338573723e+02  6.9361885714e+01  9.747378e-15 9.
        5     1     3     0   103     0  6.5371989032e+01 -4.7469525707e+01  2.2239777033e+01  8.3931522704e+01  4.8000000000e+00 0. 9.
      -24     2     4     0     0     0 -6.1855169127e+01 -8.4946349819e+00 -2.3714648141e+02  2.5817075010e+02  8.0718410499e+01  2.478681e-14 9.
       -5     1     4     0     0   102 -3.8975073629e+01  8.5301689249e+01 -7.8739356072e+01  1.2254942165e+02  4.8000000000e+00 0. 9.
       -3     1     5     0     0   104  9.0321915356e+00 -4.9074787859e+01 -8.4374517435e+01  9.8026651885e+01  5.0000000000e-01 0. 9.
        2     1     5     0   104     0  2.6426062188e+01  1.9737259300e+01 -4.4459231472e+01  5.5359085348e+01  3.3000000000e-01 0. 9.
        1     1     7     0   105     0 -2.2684903149e+01 -1.7795494522e+01 -1.5186050902e+01  3.2588487202e+01  3.3000000000e-01 0. 9.
       -2     1     7     0     0   105 -3.9170265978e+01  9.3008595398e+00 -2.2196043051e+02  2.2558226290e+02  3.3000000000e-01 0. 9.
#pdf   21   21  1.504289e-02  8.003979e-02  2.120311e+02  5.866647e+00  1.090123e+00
</event>
<event>
    12  9999  1.000000e+00  2.070506e+02  7.890859e-03  1.052925e-01
       21    -1     0     0   101   102  0.0000000000e+00  0.0000000000e+00  1.2657363864e+03  1.2657363864e+03  0.0000000000e+00 0. 9.
       21    -1     0     0   102   103  0.0000000000e+00  0.0000000000e+00 -3.9250548264e+01  3.9250548264e+01  0.0000000000e+00 0. 9.
        6     2     1     2   101     0 -7.3217928055e+01  9.0398103075e+01  8.5449044176e+02  8.7918596287e+02  1.7111797162e+02  9.027441e-14 9.
       -6     2     1     2     0   103  7.3217928055e+01 -9.0398103075e+01  3.7199539633e+02  4.2580097175e+02  1.7144448264e+02  2.934450e-14 9.
       24     2     3     0     0     0 -3.5050447241e+01  1.1365575860e+02  4.6799704144e+02  4.9008717897e+02  8.3773784005e+01  3.815768e-15 9.
        5     1     3     0   101     0 -3.8167480815e+01 -2.3257655522e+01  3.8649340032e+02  3.8909878389e+02  4.8000000000e+00 0. 9.
      -24     2     4     0     0     0  1.2109115241e+01 -7.7371145299e+01  1.1182584493e+02  1.5819076248e+02  7.9914785504e+01  6.973089e-14 9.
       -5     1     4     0     0   103  6.1108812815e+01 -1.3026957776e+01  2.6016955140e+02  2.6761020928e+02  4.8000000000e+00 0. 9.
       -1     1     5     0     0   104 -4.8915716893e+01  6.9792629261e+01  1.8906787368e+02  2.0738979776e+02  3.3000000000e-01 0. 9.
        2     1     5     0   104     0  1.3865269652e+01  4.3863129335e+01  2.7892916776e+02  2.8269738121e+02  3.3000000000e-01 0. 9.
       13     1     7     0     0     0  3.7696174642e+01 -1.3524330115e+01  5.9694851284e+01  7.1884598640e+01  1.0566000000e-01  6.027328e+05 9.
      -14     1     7     0     0     0 -2.5587059402e+01 -6.3846815184e+01  5.2130993647e+01  8.6306163839e+01  0.0000000000e+00 0. 9.
#pdf   21   21  1.947287e-01  6.038546e-03  2.069155e+02  2.793810e-01  1.180291e+01
</event>
<event>
    12  9999  1.000000e+00  1.936470e+02  7.884821e-03  1.061510e-01
        2    -1     0     0   101     0  0.0000000000e+00  0.0000000000e+00  9.1546555015e+01  9.1546555015e+01  0.0000000000e+00 0. 9.
       -2    -1     0     0     0   102  0.0000000000e+00  0.0000000000e+00 -5.5571539445e+02  5.5571539445e+02  0.0000000000e+00 0. 9.
        6     2     1     2   101     0  2.1915144531e+00 -9.3486934100e+01 -6.5264899750e+01  2.0339735177e+02  1.6842317532e+02  3.241361e-13 9.
       -6     2     1     2     0   102 -2.1915144531e+00  9.3486934100e+01 -3.9890393968e+02  4.4386459769e+02  1.7072439312e+02  2.886616e-13 9.
       24     2     3     0     0     0 -5.4237143406e+01 -9.1194598073e+01 -3.5812940476e+01  1.3952320883e+02  8.3222813297e+01  7.457076e-16 9.
        5     1     3     0   101     0  5.6428657859e+01 -2.2923360277e+00 -2.9451959274e+01  6.3874142947e+01  4.8000000000e+00 0. 9.
      -24     2     4     0     0     0 -1.7074987123e+01  1.3035971326e+02 -3.0541764737e+02  3.4215989548e+02  8.0673692872e+01  4.764649e-14 9.
       -5     1     4     0     0   102  1.4883472670e+01 -3.6872779161e+01 -9.3486292314e+01  1.0170470221e+02  4.8000000000e+00 0. 9.
       -3     1     5     0     0   103  3.8380412459e+00 -7.4225692661e+01 -1.9681451015e+01  7.6888188466e+01  5.0000000000e-01 0. 9.
        4     1     5     0   103     0 -5.8075184652e+01 -1.6968905412e+01 -1.6131489461e+01  6.2635020359e+01  1.5000000000e+00 0. 9.
        1     1     7     0   104     0 -4.5792707747e+01  6.0403537969e+01 -1.2026652977e+02  1.4216084751e+02  3.3000000000e-01 0. 9.
       -2     1     7     0     0   104  2.8717720624e+01  6.9956175292e+01 -1.8515111760e+02  1.9999904797e+02  3.3000000000e-01 0. 9.
#pdf    2   -2  1.408409e-02  8.549468e-02  1.926421e+02  7.201333e-01  8.597599e-02
</event>
<event>
    12  9999  1.000000e+00  1.843390e+02  7.880383e-03  1.067920e-01
       21    -1     0     0   101   102  0.0000000000e+00  0.0000000000e+00  7.1539497800e+01  7.1539497800e+01  0.0000000000e+00 0. 9.
       21    -1     0     0   103   101  0.0000000000e+00  0.0000000000e+00 -5.6476531651e+02  5.6476531651e+02  0.0000000000e+00 0. 9.
        6     2     1     2   103     0  2.3544420705e+01  6.4317366447e+01 -3.7344454858e+02  4.1645854794e+02  1.7113102557e+02  1.975137e-13 9.
       -6     2     1     2     0   102 -2.3544420705e+01 -6.4317366447e+01 -1.1978127013e+02  2.1984626638e+02  1.7115421348e+02  5.453019e-13 9.
       24     2     3     0     0     0 -3.9581816272e+01  7.1641442563e+00 -1.3481048174e+02  1.6304057214e+02  8.2403379992e+01  4.836834e-14 9.
        5     1     3     0   103     0  6.3126236977e+01  5.7153222190e+01 -2.3863406684e+02  2.5341797580e+02  4.8000000000e+00 0. 9.
      -24     2     4     0     0     0 -1.3829803673e+01 -8.8892203810e+01 -3.3566731815e+01  1.2954519754e+02  8.6960596554e+01  5.604332e-15 9.
       -5     1     4     0     0   102 -9.7146170320e+00  2.4574837363e+01 -8.6214538317e+01  9.0301068835e+01  4.8000000000e+00 0. 9.
       -1     1     5     0     0   104 -1.0563848550e+01 -3.6215663759e+01 -7.2759100649e+01  8.1958311506e+01  3.3000000000e-01 0. 9.
        2     1     5     0   104     0 -2.9017967721e+01  4.3379808015e+01 -6.2051381093e+01  8.1082260635e+01  3.3000000000e-01 0. 9.
        1     1     7     0   105     0  1.6937332958e+01 -4.2457259655e+01 -5.3495150163e+01  7.0365702839e+01  3.3000000000e-01 0. 9.
       -4     1     7     0     0   105 -3.0767136630e+01 -4.6434944155e+01  1.9928418348e+01  5.9179494700e+01  1.5000000000e+00 0. 9.
#pdf   21   21  1.100608e-02  8.688697e-02  1.843282e+02  7.532513e+00  9.941449e-01
</event>
<event>
    12  9999  1.000000e+00  2.395398e+02  7.904041e-03  1.034706e-01
       21    -1     0     0   101   102  0.0000000000e+00  0.0000000000e+00  1.2667180071e+03  1.2667180071e+03  0.0000000000e+00 0. 9.
       21    -1     0     0   103   101  0.0000000000e+00  0.0000000000e+00 -4.5621072208e+01  4.5621072208e+01  0.0000000000e+00 0. 9.
        6     2     1     2   103     0 -7.3702353095e+00  1.6815445883e+02  5.5622784643e+02  6.0575846082e+02  1.7094927117e+02  1.244556e-13 9.
       -6     2     1     2     0   102  7.3702353095e+00 -1.6815445883e+02  6.6486908842e+02  7.0658061845e+02  1.6992652306e+02  1.842612e-13 9.
       24     2     3     0     0     0  3.3669947166e+01  2.2735352324e+01  2.3835993072e+02  2.5377257339e+02  7.7035711469e+01  4.062197e-15 9.
        5     1     3     0   103     0 -4.1040182476e+01  1.4541910650e+02  3.1786791571e+02  3.5198588743e+02  4.8000000000e+00 0. 9.
      -24     2     4     0     0     0 -5.8040478602e+01 -1.3344284254e+02  4.2903980975e+02  4.5935208758e+02  7.5851780655e+01  1.820907e-14 9.
       -5     1     4     0     0   102  6.5410713911e+01 -3.4711616288e+01  2.3582927866e+02  2.4722853087e+02  4.8000000000e+00 0. 9.
      -15     1     5     0     0     0 -3.1431118604e+00  3.5464766674e+01  1.8073957517e+02  1.8422155126e+02  1.7768200000e+00  5.373140e-02 9.
       16     1     5     0     0     0  3.6813059027e+01 -1.2729414350e+01  5.7620355555e+01  6.9551022127e+01  0.0000000000e+00 0. 9.
        3     1     7     0   104     0 -6.4800931920e+01 -5.4080526175e+01  2.2530600572e+02  2.4059698731e+02  5.0000000000e-01 0. 9.
       -4     1     7     0     0   104  6.7604533181e+00 -7.9362316366e+01  2.0373380404e+02  2.1875510027e+02  1.5000000000e+00 0. 9.
#pdf   21   21  1.948797e-01  7.018626e-03  2.391762e+02  2.721312e-01  1.062010e+01
</event>
<event>
    12  9999  1.000000e+00  4.215248e+02  7.955571e-03  9.697169e-02
       21    -1     0     0   101   102  0.0000000000e+00  0.0000000000e+00  1.0225404214e+03  1.0225404214e+03  0.0000000000e+00 0. 9.
       21    -1     0     0   103   101  0.0000000000e+00  0.0000000000e+00 -1.9076580637e+02  1.9076580637e+02  0.0000000000e+00 0. 9.
        6     2     1     2   103     0 -3.6159218594e+02  1.3288314710e+02  5.9684400838e+02  7.3059983613e+02  1.7072349134e+02  3.321476e-13 9.
       -6     2     1     2     0   102  3.6159218594e+02 -1.3288314710e+02  2.3493060668e+02  4.8270639168e+02  1.7148245069e+02  2.224510e-13 9.
       24     2     3     0     0     0 -3.3344487082e+02  8.2484587358e+01  5.6002291091e+02  6.6196224153e+02  8.1112017874e+01  3.076396e-14 9.
        5     1     3     0   103     0 -2.8147315121e+01  5.0398559746e+01  3.6821097467e+01  6.8637594594e+01  4.8000000000e+00 0. 9.
      -24     2     4     0     0     0  3.1569088329e+02 -1.0359810626e+02  1.4194026339e+02  3.7484172116e+02  9.9829735713e+01  2.141076e-13 9.
       -5     1     4     0     0   102  4.5901302648e+01 -2.9285040839e+01  9.2990343286e+01  1.0786467052e+02  4.8000000000e+00 0. 9.
      -13     1     5     0     0     0 -1.6314030170e+02  1.2531354333e+01  2.0743123979e+02  2.6419599407e+02  1.0566000000e-01  2.627288e+05 9.
       14     1     5     0     0     0 -1.7030456912e+02  6.9953233025e+01  3.5259167112e+02  3.9776624746e+02  0.0000000000e+00 0. 9.
        1     1     7     0   104     0  8.1294885421e+01 -1.7662017496e+01  8.4676342687e+01  1.1870550606e+02  3.3000000000e-01 0. 9.
       -2     1     7     0     0   104  2.3439599787e+02 -8.5936088768e+01  5.7263920707e+01  2.5613621510e+02  3.3000000000e-01 0. 9.
#pdf   21   21  1.573139e-01  2.934859e-02  4.213708e+02  3.710260e-01  3.166165e+00
</event>
<event>
    12  9999  1.000000e+00  1.866482e+02  7.881504e-03  1.066293e-01
       21    -1     0     0   101   102  0.0000000000e+00  0.0000000000e+00  1.8399773981e+02  1.8399773981e+02  0.0000000000e+00 0. 9.
       21    -1     0     0   102   103  0.0000000000e+00  0.0000000000e+00 -2.2816951357e+02  2.2816951357e+02  0.0000000000e+00 0. 9.
        6     2     1     2   101     0 -6.8681332825e+01  2.9252727795e+01 -1.0712231436e+02  2.1536456057e+02  1.7127129401e+02  1.522148e-14 9.
       -6     2     1     2     0   103  6.8681332825e+01 -2.9252727795e+01  6.2950540602e+01  1.9680269280e+02  1.7086743918e+02  3.089359e-14 9.
       24     2     3     0     0     0 -7.7846156282e+01  4.9171510466e-02 -8.9221778184e+00  1.1239296980e+02  8.0576348496e+01  4.717709e-13 9.
        5     1     3     0   101     0  9.1648234574e+00  2.9203556285e+01 -9.8200136543e+01  1.0297159077e+02  4.8000000000e+00 0. 9.
      -24     2     4     0     0     0  8.1763505963e+01  3.3668543718e+01  4.4157107697e+01  1.2967250002e+02  8.3942035703e+01  1.469424e-13 9.
       -5     1     4     0     0   103 -1.3082173138e+01 -6.2921271513e+01  1.8793432905e+01  6.7130192784e+01  4.8000000000e+00 0. 9.
      -15     1     5     0     0     0  1.6546028991e+01 -2.5525703913e+00 -6.1511132995e+00  1.7924284508e+01  1.7768200000e+00  5.585416e-02 9.
       16     1     5     0     0     0 -9.4392185274e+01  2.6017419017e+00 -2.7710645188e+00  9.4468685289e+01  0.0000000000e+00 0. 9.
        3     1     7     0   104     0  6.9893213779e+01 -4.9727081064e+00  5.3494918897e+01  8.8157503969e+01  5.0000000000e-01 0. 9.
       -4     1     7     0     0   104  1.1870292185e+01  3.8641251825e+01 -9.3378112008e+00  4.1514996051e+01  1.5000000000e+00 0. 9.
#pdf   21   21  2.830734e-02  3.510300e-02  1.864632e+02  3.380488e+00  2.750311e+00
</event>
<event>
    12  9999  1.000000e+00  2.088383e+02  7.891636e-03  1.051832e-01
       21    -1     0     0   101   102  0.0000000000e+00  0.0000000000e+00  8.6253155825e+02  8.6253155825e+02  0.0000000000e+00 0. 9.
       21    -1     0     0   102   103  0.0000000000e+00  0.0000000000e+00 -5.1570088842e+01  5.1570088842e+01  0.0000000000e+00 0. 9.
        6     2     1     2   101     0  4.3966343867e+01 -1.1133449840e+02  3.3987332285e+02  3.9841004008e+02  1.6996550981e+02  1.288279e-13 9.
       -6     2     1     2     0   103 -4.3966343867e+01  1.1133449840e+02  4.7108814656e+02  5.1569160701e+02  1.7229446243e+02  6.689466e-14 9.
       24     2     3     0     0     0 -1.9938692000e+01 -2.2157038277e+01  8.7358941354e+01  1.2305022844e+02  8.1371299006e+01  2.150947e-13 9.
        5     1     3     0   101     0  6.3905035867e+01 -8.9177460124e+01  2.5251438149e+02  2.7535981164e+02  4.8000000000e+00 0. 9.
      -24     2     4     0     0     0 -6.4525347325e+01  1.3998403957e+02  3.6738937561e+02  4.0605610214e+02  7.8406332586e+01  7.119210e-14 9.
       -5     1     4     0     0   103  2.0559003458e+01 -2.8649541169e+01  1.0369877095e+02  1.0963550487e+02  4.8000000000e+00 0. 9.
      -13     1     5     0     0     0 -5.0765600791e+01 -4.3101991012e+00  5.4160476070e+01  7.4357866915e+01  1.0566000000e-01  8.412448e+05 9.
       14     1     5     0     0     0  3.0826908791e+01 -1.7846839176e+01  3.3198465283e+01  4.8692361529e+01  0.0000000000e+00 0. 9.
       15     1     7     0     0     0 -1.2993814597e+01  7.0609917760e+01  2.5112044531e+02  2.6118812156e+02  1.7768200000e+00  8.517253e-02 9.
      -16     1     7     0     0     0 -5.1531532728e+01  6.9374121809e+01  1.1626893030e+02  1.4486798057e+02  0.0000000000e+00 0. 9.
#pdf   21   21  1.326972e-01  7.933860e-03  2.078862e+02  5.394309e-01  9.674124e+00
</event>
<event>
    12  9999  1.000000e+00  2.274090e+02  7.899336e-03  1.041128e-01
       21    -1     0     0   101   102  0.0000000000e+00  0.0000000000e+00  5.6328679207e+01  5.6328679207e+01  0.0000000000e+00 0. 9.
       21    -1     0     0   102   103  0.0000000000e+00  0.0000000000e+00 -1.1280817186e+03  1.1280817186e+03  0.0000000000e+00 0. 9.
        6     2     1     2   101     0 -1.4979105266e+02 -2.6169119894e+00 -2.7958548972e+02  3.6013426457e+02  1.7054159249e+02  1.112694e-13 9.
       -6     2     1     2     0   103  1.4979105266e+02  2.6169119894e+00 -7.9216754962e+02  8.2427613318e+02  1.7163190082e+02  1.491774e-13 9.
       24     2     3     0     0     0 -1.5424332019e+02  4.2491328167e+01 -2.4105581181e+02  3.0045049713e+02  8.1031364448e+01  5.438026e-14 9.
        5     1     3     0   101     0  4.4522675317e+00 -4.5108240156e+01 -3.8529677908e+01  5.9683767440e+01  4.8000000000e+00 0. 9.
      -24     2     4     0     0     0  1.7434342301e+02  2.5166391162e+01 -6.5715710245e+02  6.8512815891e+02  8.0722738022e+01  1.502819e-13 9.
       -5     1     4     0     0   103 -2.4552370348e+01 -2.2549479173e+01 -1.3501044717e+02  1.3914797428e+02  4.8000000000e+00 0. 9.
       -1     1     5     0     0   104 -7.3747239113e+01  1.9390099578e+01 -4.8237334358e+01  9.0230707436e+01  3.3000000000e-01 0. 9.
        2     1     5     0   104     0 -8.0496081080e+01  2.3101228588e+01 -1.9281847746e+02  2.1021978970e+02  3.3000000000e-01 0. 9.
       11     1     7     0     0     0  1.0318433546e+02  3.8062539824e+00 -2.3793368767e+02  2.5937219277e+02  5.1100000000e-04 0. 9.
      -12     1     7     0     0     0  7.1159087554e+01  2.1360137180e+01 -4.1922341478e+02  4.2575596614e+02  0.0000000000e+00 0. 9.
#pdf   21   21  8.665951e-03  1.735510e-01  2.269992e+02  9.067148e+00  3.409151e-01
</event>
<event>
    12  9999  1.000000e+00  2.458860e+02  7.906410e-03  1.031505e-01
       21    -1     0     0   101   102  0.0000000000e+00  0.0000000000e+00  1.0086075846e+03  1.0086075846e+03  0.0000000000e+00 0. 9.
       21    -1     0     0   103   101  0.0000000000e+00  0.0000000000e+00 -6.3418155262e+01  6.3418155262e+01  0.0000000000e+00 0. 9.
        6     2     1     2   103     0 -1.3959106680e+02  9.1847181282e+01  3.6195454843e+02  4.4193123574e+02  1.9071064825e+02  1.561509e-13 9.
       -6     2     1     2     0   102  1.3959106680e+02 -9.1847181282e+01  5.8323488092e+02  6.3009450413e+02  1.7010169657e+02  3.203784e-13 9.
       24     2     3     0     0     0 -1.6397394391e+02  8.5175545924e+01  2.2201754074e+02  2.9964827282e+02  7.9718072631e+01  1.132206e-14 9.
        5     1     3     0   103     0  2.4382877118e+01  6.6716353583e+00  1.3993700770e+02  1.4228296292e+02  4.8000000000e+00 0. 9.
      -24     2     4     0     0     0  1.3072100232e+02 -1.2458568865e+02  5.3761763004e+02  5.7304661647e+02  8.2098320680e+01  5.642182e-14 9.
       -5     1     4     0     0   102  8.8700644804e+00  3.2738507367e+01  4.5617250880e+01  5.7047887659e+01  4.8000000000e+00 0. 9.
       -1     1     5     0     0   104 -1.8346548005e+01 -9.6511854350e+00  4.4642812474e+00  2.1208015255e+01  3.3000000000e-01 0. 9.
        2     1     5     0   104     0 -1.4562739591e+02  9.4826731359e+01  2.1755325949e+02  2.7844025757e+02  3.3000000000e-01 0. 9.
        1     1     7     0   105     0  4.7983370520e+00 -1.2587062601e+01  1.4712889077e+02  1.4774463639e+02  3.3000000000e-01 0. 9.
       -2     1     7     0     0   105  1.2592266526e+02 -1.1199862605e+02  3.9048873926e+02  4.2530198008e+02  3.3000000000e-01 0. 9.
#pdf   21   21  1.551704e-01  9.756639e-03  2.384453e+02  4.112684e-01  8.285998e+00
</event>
<event>
    12  9999  1.000000e+00  1.746418e+02  7.875520e-03  1.075043e-01
       21    -1     0     0   101   102  0.0000000000e+00  0.0000000000e+00  2.6504269724e+02  2.6504269724e+02  0.0000000000e+00 0. 9.
       21    -1     0     0   103   101  0.0000000000e+00  0.0000000000e+00 -1.1533161425e+02  1.1533161425e+02  0.0000000000e+00 0. 9.
        6     2     1     2   103     0 -3.2353116737e+01  1.7709482928e+01  6.5899203109e+01  1.8669635625e+02  1.7074095735e+02  8.396521e-14 9.
       -6     2     1     2     0   102  3.2353116737e+01 -1.7709482928e+01  8.3811879881e+01  1.9367795524e+02  1.7066449305e+02  6.005055e-14 9.
       24     2     3     0     0     0  3.7425082019e+01  3.9455002528e+01  9.7242829166e+00  9.4389659292e+01  7.6534385176e+01  3.674235e-14 9.
        5     1     3     0   103     0 -6.9778198756e+01 -2.1745519600e+01  5.6174920192e+01  9.2306696956e+01  4.8000000000e+00 0. 9.
      -24     2     4     0     0     0 -1.9619057397e+00 -6.1335629901e+01  9.3362781484e+01  1.3715343677e+02  7.9552169554e+01  6.884865e-14 9.
       -5     1     4     0     0   102  3.4315022477e+01  4.3626146973e+01 -9.5509016033e+00  5.6524518474e+01  4.8000000000e+00 0. 9.
       -1     1     5     0     0   104  6.1153859901e+01  2.9841734392e+01  1.0036673435e+01  6.8783482072e+01  3.3000000000e-01 0. 9.
        2     1     5     0   104     0 -2.3728777881e+01  9.6132681360e+00 -3.1239051792e-01  2.5606177220e+01  3.3000000000e-01 0. 9.
        3     1     7     0   105     0  6.8008153511e+00 -1.4333702713e+01 -1.3007628219e+01  2.0522049478e+01  5.0000000000e-01 0. 9.
       -4     1     7     0     0   105 -8.7627210908e+00 -4.7001927188e+01  1.0637040970e+02  1.1663138729e+02  1.5000000000e+00 0. 9.
#pdf   21   21  4.077580e-02  1.774333e-02  1.746045e+02  2.374162e+00  5.120730e+00
</event>
<event>
    12  9999  1.000000e+00  2.023584e+02  7.888790e-03  1.055849e-01
       21    -1     0     0   101   102  0.0000000000e+00  0.0000000000e+00  2.1316357857e+02  2.1316357857e+02  0.0000000000e+00 0. 9.
       21    -1     0     0   102   103  0.0000000000e+00  0.0000000000e+00 -2.7659934779e+02  2.7659934779e+02  0.0000000000e+00 0. 9.
        6     2     1     2   101     0  4.8283651829e+01  9.7191846322e+01  1.0357983209e+02  2.2773760029e+02  1.7134195908e+02  5.703318e-14 9.
       -6     2     1     2     0   103 -4.8283651829e+01 -9.7191846322e+01 -1.6701560131e+02  2.6202532608e+02  1.7025126842e+02  1.474789e-13 9.
       24     2     3     0     0     0  8.9444230722e+01  7.3780532246e+01  3.7031090880e+01  1.4592037814e+02  8.0483648762e+01  4.171946e-13 9.
        5     1     3     0   101     0 -4.1160578893e+01  2.3411314076e+01  6.6548741215e+01  8.1817222141e+01  4.8000000000e+00 0. 9.
      -24     2     4     0     0     0  4.0735048448e+01 -3.2426681809e+01 -4.6284639602e+01  9.8569336129e+01  6.9733867644e+01  3.734550e-14 9.
       -5     1     4     0     0   103 -8.9018700277e+01 -6.4765164513e+01 -1.2073096171e+02  1.6345598995e+02  4.8000000000e+00 0. 9.
       -3     1     5     0     0   104  5.8623441578e+01  6.9586656043e+01 -7.8117329215e+00  9.1325154108e+01  5.0000000000e-01 0. 9.
        4     1     5     0   104     0  3.0820789145e+01  4.1938762036e+00  4.4842823802e+01  5.4595224037e+01  1.5000000000e+00 0. 9.
       15     1     7     0     0     0  4.2545480786e-01 -2.4251709759e+00  1.7278491734e+01  1.7543256025e+01  1.7768200000e+00  9.429953e-02 9.
      -16     1     7     0     0     0  4.0309593640e+01 -3.0001510833e+01 -6.3563131336e+01  8.1026080104e+01  0.0000000000e+00 0. 9.
#pdf   21   21  3.279440e-02  4.255375e-02  2.018986e+02  2.929484e+00  2.255011e+00
</event>
<event>
    12  9999  1.000000e+00  2.233049e+02  7.897688e-03  1.043398e-01
       21    -1     0     0   101   102  0.0000000000e+00  0.0000000000e+00  9.0849303735e+02  9.0849303735e+02  0.0000000000e+00 0. 9.
       21    -1     0     0   102   103  0.0000000000e+00  0.0000000000e+00 -5.7069664711e+01  5.7069664711e+01  0.0000000000e+00 0. 9.
        6     2     1     2   101     0  1.3793381299e+02 -3.8838850437e+01  3.3126540806e+02  3.9948809872e+02  1.7123018827e+02  2.872878e-13 9.
       -6     2     1     2     0   103 -1.3793381299e+02  3.8838850437e+01  5.2015796458e+02  5.6607460334e+02  1.7129493676e+02  8.990979e-15 9.
       24     2     3     0     0     0  2.2575892364e+01  1.3068053842e+00  2.1522898358e+02  2.3094547699e+02  8.0628278626e+01  4.839156e-14 9.
        5     1     3     0   101     0  1.1535792063e+02 -4.0145655821e+01  1.1603642447e+02  1.6854262173e+02  4.8000000000e+00 0. 9.
      -24     2     4     0     0     0 -6.2796213376e+01  4.2528183233e+01  1.3913655583e+02  1.7766808437e+02  8.0342742372e+01  8.656495e-14 9.
       -5     1     4     0     0   103 -7.5137599618e+01 -3.6893327953e+00  3.8102140875e+02  3.8840651897e+02  4.8000000000e+00 0. 9.
      -13     1     5     0     0     0  1.2037717727e+01 -1.0561500713e+01  9.1074520102e-01  1.6040341837e+01  1.0566000000e-01  1.876292e+06 9.
       14     1     5     0     0     0  1.0538174637e+01  1.1868306097e+01  2.1431823838e+02  2.1490513516e+02  0.0000000000e+00 0. 9.
        1     1     7     0   104     0 -1.3744919175e+01  1.4524867319e+01  1.1417818155e+02  1.1591661061e+02  3.3000000000e-01 0. 9.
       -2     1     7     0     0   104 -4.9051294200e+01  2.8003315913e+01  2.4958374287e+01  6.1751473763e+01  3.3000000000e-01 0. 9.
#pdf   21   21  1.397682e-01  8.779948e-03  2.232800e+02  4.925822e-01  8.976122e+00
</event>
<event>
    12  9999  1.000000e+00  2.305913e+02  7.900593e-03  1.039403e-01
       21    -1     0     0   101   102  0.0000000000e+00  0.0000000000e+00  1.1794024978e+02  1.1794024978e+02  0.0000000000e+00 0. 9.
       21    -1     0     0   102   103  0.0000000000e+00  0.0000000000e+00 -7.0003801883e+02  7.0003801883e+02  0.0000000000e+00 0. 9.
        6     2     1     2   101     0  3.0964747635e+01  1.5218561620e+02 -4.6966199018e+01  2.3524776620e+02  1.7034203907e+02  3.544684e-13 9.
       -6     2     1     2     0   103 -3.0964747635e+01 -1.5218561620e+02 -5.3513157004e+02  5.8273050241e+02  1.7055721566e+02  2.527270e-14 9.
       24     2     3     0     0     0 -3.6393612380e+01  5.2412100953e+01  7.8287107069e+00  1.0289435619e+02  8.0339507565e+01  2.134852e-13 9.
        5     1     3     0   101     0  6.7358360015e+01  9.9773515248e+01 -5.4794909725e+01  1.3235341001e+02  4.8000000000e+00 0. 9.
      -24     2     4     0     0     0  1.3817225530e+01 -1.6008006446e+02 -4.6967645910e+02  5.0288590972e+02  8.0509124980e+01  2.862324e-14 9.
       -5     1     4     0     0   103 -4.4781973165e+01  7.8944482574e+00 -6.5455110937e+01  7.9844592689e+01  4.8000000000e+00 0. 9.
       -3     1     5     0     0   104  8.7218401442e+00  2.8662530645e+01  3.4203166626e+01  4.5472164735e+01  5.0000000000e-01 0. 9.
        4     1     5     0   104     0 -4.5115452524e+01  2.3749570309e+01 -2.6374455919e+01  5.7422191453e+01  1.5000000000e+00 0. 9.
        3     1     7     0   105     0  3.2029568149e+00 -1.8939755097e+00 -1.0702362976e+02  1.0708946448e+02  5.0000000000e-01 0. 9.
       -4     1     7     0     0   105  1.0614268715e+01 -1.5818608895e+02 -3.6265282934e+02  3.9579644524e+02  1.5000000000e+00 0. 9.
#pdf   21   21  1.814465e-02  1.076982e-01  2.305118e+02  5.004883e+00  7.260284e-01
</event>
<event>
    12  9999  1.000000e+00  2.655871e+02  7.913403e-03  1.022185e-01
       21    -1     0     0   101   102  0.0000000000e+00  0.0000000000e+00  1.8576856527e+02  1.8576856527e+02  0.0000000000e+00 0. 9.
       21    -1     0     0   102   103  0.0000000000e+00  0.0000000000e+00 -7.0972992908e+02  7.0972992908e+02  0.0000000000e+00 0. 9.
        6     2     1     2   101     0  1.1545663137e+02  1.6748480404e+02  4.3143041910e+01  2.6944671853e+02  1.7134415295e+02  2.224122e-13 9.
       -6     2     1     2     0   103 -1.1545663137e+02 -1.6748480404e+02 -5.6710440572e+02  6.2605177582e+02  1.7015294800e+02  6.813776e-14 9.
       24     2     3     0     0     0  1.0470318990e+02  1.7950489228e+02 -7.8232419428e-01  2.2240847014e+02  7.9247405184e+01  6.327083e-14 9.
        5     1     3     0   101     0  1.0753441465e+01 -1.2020088243e+01  4.3925366104e+01  4.7038248395e+01  4.8000000000e+00 0. 9.
      -24     2     4     0     0     0 -3.4283617663e+01 -1.4776880287e+02 -4.5422366815e+02  4.8554241752e+02  8.0133095305e+01  1.151008e-13 9.
       -5     1     4     0     0   103 -8.1173013703e+01 -1.9716001170e+01 -1.1288073758e+02  1.4050935831e+02  4.8000000000e+00 0. 9.
       -1     1     5     0     0   104  3.0949513510e+01  8.9587040043e+01  3.4517251876e+01  1.0087249232e+02  3.3000000000e-01 0. 9.
        2     1     5     0   104     0  7.3753676391e+01  8.9917852240e+01 -3.5299576070e+01  1.2153597781e+02  3.3000000000e-01 0. 9.
        1     1     7     0   105     0  1.0825642217e+01 -1.5521592812e+01 -1.4480419606e+02  1.4603588076e+02  3.3000000000e-01 0. 9.
       -2     1     7     0     0   105 -4.5109259880e+01 -1.3224721006e+02 -3.0941947208e+02  3.3950653676e+02  3.3000000000e-01 0. 9.
#pdf   21   21  2.857978e-02  1.091892e-01  2.652045e+02  3.307155e+00  7.009235e-01
</event>
<event>
    12  9999  1.000000e+00  1.819981e+02  7.879233e-03  1.069596e-01
       21    -1     0     0   101   102  0.0000000000e+00  0.0000000000e+00  2.5304838798e+03  2.5304838798e+03  0.0000000000e+00 0. 9.
       21    -1     0     0   103   101  0.0000000000e+00  0.0000000000e+00 -1.6349499243e+01  1.6349499243e+01  0.0000000000e+00 0. 9.
        6     2     1     2   103     0  4.4856068301e+01  4.6697197275e+01  6.9749377257e+02  7.2125839846e+02  1.7182380357e+02  1.513891e-14 9.
       -6     2     1     2     0   102 -4.4856068301e+01 -4.6697197275e+01  1.8166406079e+03  1.8255749805e+03  1.6836928479e+02  1.283239e-13 9.
       24     2     3     0     0     0 -2.1029904973e+01  7.5147779549e+01  4.1219403609e+02  4.2703165470e+02  7.9766315279e+01  5.136431e-16 9.
        5     1     3     0   103     0  6.5885973274e+01 -2.8450582275e+01  2.8529973648e+02  2.9422674376e+02  4.8000000000e+00 0. 9.
      -24     2     4     0     0     0  3.1934094601e+01 -9.5882058922e+00  8.4591456033e+02  8.5109773306e+02  8.7659498861e+01  1.315028e-13 9.
       -5     1     4     0     0   102 -7.6790162902e+01 -3.7108991383e+01  9.7072604762e+02  9.7447724749e+02  4.8000000000e+00 0. 9.
       -1     1     5     0     0   104  3.0546106440e+01  3.1262811233e+01  1.7293034449e+02  1.7836883397e+02  3.3000000000e-01 0. 9.
        2     1     5     0   104     0 -5.1576011413e+01  4.3884968317e+01  2.3926369159e+02  2.4866282073e+02  3.3000000000e-01 0. 9.
        3     1     7     0   105     0  4.0760236104e+01  1.9300325535e+01  2.2658253956e+02  2.3102769670e+02  5.0000000000e-01 0. 9.
       -4     1     7     0     0   105 -8.8261415033e+00 -2.8888531427e+01  6.1933202078e+02  6.2007003635e+02  1.5000000000e+00 0. 9.
#pdf   21   21  3.893052e-01  2.515308e-03  1.803910e+02  4.031330e-02  2.118818e+01
</event>
<event>
    12  9999  1.000000e+00  1.776258e+02  7.877044e-03  1.072800e-01
       21    -1     0     0   101   102  0.0000000000e+00  0.0000000000e+00  6.7646518264e+01  6.7646518264e+01  0.0000000000e+00 0. 9.
       21    -1     0     0   103   101  0.0000000000e+00  0.0000000000e+00 -7.4961513651e+02  7.4961513651e+02  0.0000000000e+00 0. 9.
        6     2     1     2   103     0 -4.8553621748e+01 -4.6875697400e+01 -5.8412147346e+02  6.0873049255e+02  1.5748057534e+02  3.226208e-13 9.
       -6     2     1     2     0   102  4.8553621748e+01  4.6875697400e+01 -9.7847144781e+01  2.0853116222e+02  1.7133708496e+02  9.739426e-14 9.
       24     2     3     0     0     0 -4.0334561779e+01  1.6240688776e+01 -4.6138902246e+02  4.7039204641e+02  8.0611478313e+01  1.314801e-13 9.
        5     1     3     0   103     0 -8.2190599686e+00 -6.3116386176e+01 -1.2273245100e+02  1.3833844614e+02  4.8000000000e+00 0. 9.
      -24     2     4     0     0     0  9.2000544471e+01  3.4664553104e+00 -7.1467311395e+01  1.4151673838e+02  8.0270132359e+01  1.296273e-13 9.
       -5     1     4     0     0   102 -4.3446922724e+01  4.3409242089e+01 -2.6379833385e+01  6.7014423838e+01  4.8000000000e+00 0. 9.
      -15     1     5     0     0     0 -3.1822489771e+00 -2.5606970816e+01 -6.3167276569e+01  6.8257641194e+01  1.7768200000e+00  4.533296e-02 9.
       16     1     5     0     0     0 -3.7152312802e+01  4.1847659593e+01 -3.9822174589e+02  4.0213440522e+02  0.0000000000e+00 0. 9.
        3     1     7     0   104     0  5.5433998316e+01 -9.4724051524e+00 -8.3680721962e+01  1.0082344894e+02  5.0000000000e-01 0. 9.
       -4     1     7     0     0   104  3.6566546155e+01  1.2938860463e+01  1.2213410566e+01  4.0693289440e+01  1.5000000000e+00 0. 9.
#pdf   21   21  1.040716e-02  1.153254e-01  1.713328e+02  7.857039e+00  6.806595e-01
</event>
<event>
    12  9999  1.000000e+00  2.416281e+02  7.904827e-03  1.033641e-01
       21    -1     0     0   101   102  0.0000000000e+00  0.0000000000e+00  2.4710532553e+02  2.4710532553e+02  0.0000000000e+00 0. 9.
       21    -1     0     0   102   103  0.0000000000e+00  0.0000000000e+00 -2.5670491586e+02  2.5670491586e+02  0.0000000000e+00 0. 9.
        6     2     1     2   101     0 -1.5924337547e+01  1.6897691681e+02  6.6266428393e+01  2.5071071100e+02  1.7221451199e+02  2.198391e-14 9.
       -6     2     1     2     0   103  1.5924337547e+01 -1.6897691681e+02 -7.5866018721e+01  2.5309953039e+02  1.7174672208e+02  3.655192e-13 9.
       24     2     3     0     0     0  4.9937665914e+01  5.3437494674e+01  8.0807191717e+00  1.0546685287e+02  7.5555428122e+01  1.661538e-13 9.
        5     1     3     0   101     0 -6.5862003462e+01  1.1553942214e+02  5.8185709222e+01  1.4524385813e+02  4.8000000000e+00 0. 9.
      -24     2     4     0     0     0 -1.5277977853e+01 -1.0951973267e+02  1.5728235989e+01  1.3942768371e+02  8.3454856807e+01  6.727281e-14 9.
       -5     1     4     0     0   103  3.1202315400e+01 -5.9457184137e+01 -9.1594254710e+01  1.1367184668e+02  4.8000000000e+00 0. 9.
       -3     1     5     0     0   104  6.3716147516e+00  2.1386405419e+01 -3.1373112887e+01  3.8503220950e+01  5.0000000000e-01 0. 9.
        4     1     5     0   104     0  4.3566051163e+01  3.2051089254e+01  3.9453832059e+01  6.6963631924e+01  1.5000000000e+00 0. 9.
       15     1     7     0     0     0 -3.4562419993e+01 -1.4661217782e+01  1.9920257390e+01  4.2538052687e+01  1.7768200000e+00  3.403131e-02 9.
      -16     1     7     0     0     0  1.9284442140e+01 -9.4858514889e+01 -4.1920214003e+00  9.6889631019e+01  0.0000000000e+00 0. 9.
#pdf   21   21  3.801620e-02  3.949306e-02  2.414616e+02  2.508006e+00  2.412221e+00
</event>
<event>
    12  9999  1.000000e+00  1.887526e+02  7.882514e-03  1.064831e-01
       21    -1     0     0   101   102  0.0000000000e+00  0.0000000000e+00  1.9272282568e+02  1.9272282568e+02  0.0000000000e+00 0. 9.
       21    -1     0     0   103   101  0.0000000000e+00  0.0000000000e+00 -2.4980349965e+02  2.4980349965e+02  0.0000000000e+00 0. 9.
        6     2     1     2   103     0 -6.6991280175e+01  4.0591323371e+01 -1.4135106959e+02  2.3578745904e+02  1.7169773969e+02  4.099868e-14 9.
       -6     2     1     2     0   102  6.6991280175e+01 -4.0591323371e+01  8.4270395619e+01  2.0673886628e+02  1.7176720322e+02  1.385146e-13 9.
       24     2     3     0     0     0 -7.1515683042e+01  5.1624202092e+01 -1.6815062060e+02  2.0606456267e+02  8.0052617797e+01  9.982642e-14 9.
        5     1     3     0   103     0  4.5244028674e+00 -1.1032878721e+01  2.6799551016e+01  2.9722896373e+01  4.8000000000e+00 0. 9.
      -24     2     4     0     0     0  1.1935610489e+01 -7.4817216909e+01  7.9571979479e+01  1.4156484027e+02  8.9268299736e+01  4.587298e-13 9.
       -5     1     4     0     0   102  5.5055669686e+01  3.4225893537e+01  4.6984161393e+00  6.5174026017e+01  4.8000000000e+00 0. 9.
       -3     1     5     0     0   104  5.8017845553e+00 -1.5596929524e+01 -2.3702132540e+01  2.8964909832e+01  5.0000000000e-01 0. 9.
        4     1     5     0   104     0 -7.7317467598e+01  6.7221131616e+01 -1.4444848806e+02  1.7709965284e+02  1.5000000000e+00 0. 9.
       13     1     7     0     0     0  5.0541128871e+01 -3.9350393659e+01  3.6552838310e+01  7.3749442989e+01  1.0566000000e-01  1.188621e+06 9.
      -14     1     7     0     0     0 -3.8605518382e+01 -3.5466823250e+01  4.3019141169e+01  6.7815397277e+01  0.0000000000e+00 0. 9.
#pdf   21   21  2.964967e-02  3.843131e-02  1.887210e+02  3.235122e+00  2.511768e+00
</event>
<event>
    12  9999  1.000000e+00  3.150965e+02  7.928954e-03  1.002112e-01
       21    -1     0     0   101   102  0.0000000000e+00  0.0000000000e+00  9.5484653973e+01  9.5484653973e+01  0.0000000000e+00 0. 9.
       21    -1     0     0   102   103  0.0000000000e+00  0.0000000000e+00 -1.0675660533e+03  1.0675660533e+03  0.0000000000e+00 0. 9.
        6     2     1     2   101     0  4.9099469889e+01 -2.6013662021e+02 -5.8036153278e+02  6.6055883538e+02  1.7157111397e+02  5.144206e-13 9.
       -6     2     1     2     0   103 -4.9099469889e+01  2.6013662021e+02 -3.9171986659e+02  5.0249187194e+02  1.7021107005e+02  1.570175e-13 9.
       24     2     3     0     0     0  6.1352664141e+01 -2.7446131424e+02 -5.0734248849e+02  5.8499324495e+02  7.5680470334e+01  7.984082e-14 9.
        5     1     3     0   101     0 -1.2253194253e+01  1.4324694038e+01 -7.3019044286e+01  7.5565590430e+01  4.8000000000e+00 0. 9.
      -24     2     4     0     0     0  2.1308399975e+01  1.9511016184e+02 -3.1268481413e+02  3.7817257358e+02  8.1979749077e+01  2.289977e-13 9.
       -5     1     4     0     0   103 -7.0407869864e+01  6.5026458366e+01 -7.9035052457e+01  1.2431929835e+02  4.8000000000e+00 0. 9.
      -11     1     5     0     0     0  4.9671946821e+01 -1.2979144605e+02 -3.1272960022e+02  3.4221765680e+02  5.1100000000e-04 0. 9.
       12     1     5     0     0     0  1.1680717321e+01 -1.4466986819e+02 -1.9461288827e+02  2.4277558815e+02  0.0000000000e+00 0. 9.
       15     1     7     0     0     0 -9.5599681444e+00  3.8272219355e+01 -1.2783450542e+02  1.3379452018e+02  1.7768200000e+00  3.795501e-02 9.
      -16     1     7     0     0     0  3.0868368119e+01  1.5683794248e+02 -1.8485030871e+02  2.4437805340e+02  0.0000000000e+00 0. 9.
#pdf   21   21  1.468995e-02  1.642409e-01  3.147279e+02  5.961107e+00  3.582045e-01
</event>
<event>
    12  9999  1.000000e+00  1.885051e+02  7.882396e-03  1.065002e-01
       21    -1     0     0   101   102  0.0000000000e+00  0.0000000000e+00  1.5775488402e+02  1.5775488402e+02  0.0000000000e+00 0. 9.
       21    -1     0     0   103   101  0.0000000000e+00  0.0000000000e+00 -2.2998062287e+02  2.2998062287e+02  0.0000000000e+00 0. 9.
        6     2     1     2   103     0 -6.5210335824e+01 -4.5779053329e+01 -6.4064592059e+01  1.9989521183e+02  1.7177227405e+02  1.878326e-13 9.
       -6     2     1     2     0   102  6.5210335824e+01  4.5779053329e+01 -8.1611467875e+00  1.8784029506e+02  1.6990957157e+02  4.466896e-13 9.
       24     2     3     0     0     0 -1.1167732004e+01 -5.1704252586e+01 -9.6701085568e+01  1.3630361079e+02  8.0184327588e+01  1.052663e-13 9.
        5     1     3     0   103     0 -5.4042603820e+01  5.9251992575e+00  3.2636493509e+01  6.3591601038e+01  4.8000000000e+00 0. 9.
      -24     2     4     0     0     0  8.5813695859e+00  8.4633861025e+01  4.9897191832e+00  1.1775091517e+02  8.1264078097e+01  1.249174e-13 9.
       -5     1     4     0     0   102  5.6628966238e+01 -3.8854807697e+01 -1.3150865971e+01  7.0089379895e+01  4.8000000000e+00 0. 9.
       -3     1     5     0     0   104  1.8889967094e+00 -5.2840556461e+01 -1.7035370485e+01  5.5553096792e+01  5.0000000000e-01 0. 9.
        4     1     5     0   104     0 -1.3056728713e+01  1.1363038745e+00 -7.9665715083e+01  8.0750513998e+01  1.5000000000e+00 0. 9.
        1     1     7     0   105     0 -1.8705685734e+01  2.2988698865e+01  3.3333393896e+01  4.4605010961e+01  3.3000000000e-01 0. 9.
       -4     1     7     0     0   105  2.7287055319e+01  6.1645162160e+01 -2.8343674712e+01  7.3145904205e+01  1.5000000000e+00 0. 9.
#pdf   21   21  2.426998e-02  3.538163e-02  1.876629e+02  3.892536e+00  2.728222e+00
</event>
<event>
    12  9999  1.000000e+00  2.049379e+02  7.889933e-03  1.054231e-01
       21    -1     0     0   101   102  0.0000000000e+00  0.0000000000e+00  3.0476517469e+03  3.0476517469e+03  0.0000000000e+00 0. 9.
       21    -1     0     0   102   103  0.0000000000e+00  0.0000000000e+00 -1.7416680320e+01  1.7416680320e+01  0.0000000000e+00 0. 9.
        6     2     1     2   101     0 -5.2649007508e+01 -9.9356343337e+01  2.2166203070e+03  2.2260944394e+03  1.7160206056e+02  1.522662e-14 9.
       -6     2     1     2     0   103  5.2649007508e+01  9.9356343337e+01  8.1361475967e+02  8.3897398781e+02  1.7106950086e+02  1.726887e-13 9.
       24     2     3     0     0     0 -4.2340402533e+01 -9.4742412372e+01  1.0005369546e+03  1.0099491703e+03  9.0301133803e+01  1.849308e-13 9.
        5     1     3     0   101     0 -1.0308604975e+01 -4.6139309652e+00  1.2160833524e+03  1.2161452691e+03  4.8000000000e+00 0. 9.
      -24     2     4     0     0     0  8.2859178671e+01  7.8261687429e+01  3.9765226181e+02  4.2135516810e+02  8.0139385806e+01  1.599073e-13 9.
       -5     1     4     0     0   103 -3.0210171163e+01  2.1094655908e+01  4.1596249786e+02  4.1761881971e+02  4.8000000000e+00 0. 9.
       -1     1     5     0     0   104 -5.8056445280e+01 -4.5082512000e+01  7.7487218644e+02  7.7835081933e+02  3.3000000000e-01 0. 9.
        2     1     5     0   104     0  1.5716042748e+01 -4.9659900372e+01  2.2566476813e+02  2.3159835099e+02  3.3000000000e-01 0. 9.
        3     1     7     0   105     0  7.6498533708e+01  1.9623420198e+01  2.5602858281e+02  2.6793280780e+02  5.0000000000e-01 0. 9.
       -4     1     7     0     0   105  6.3606449630e+00  5.8638267232e+01  1.4162367899e+02  1.5342236030e+02  1.5000000000e+00 0. 9.
#pdf   21   21  4.688695e-01  2.679489e-03  2.047154e+02  1.426341e-02  2.050678e+01
</event>
<event>
    12  9999  1.000000e+00  2.092137e+02  7.891798e-03  1.051604e-01
        2    -1     0     0   101     0  0.0000000000e+00  0.0000000000e+00  2.1100006079e+03  2.1100006079e+03  0.0000000000e+00 0. 9.
       -2    -1     0     0     0   102  0.0000000000e+00  0.0000000000e+00 -2.9914102078e+01  2.9914102078e+01  0.0000000000e+00 0. 9.
        6     2     1     2   101     0  1.0132123023e+02 -6.5894203720e+01  1.6328758195e+03  1.6462403297e+03  1.7092613432e+02  6.960995e-14 9.
       -6     2     1     2     0   102 -1.0132123023e+02  6.5894203720e+01  4.4721068632e+02  4.9367438029e+02  1.7061347548e+02  2.048913e-13 9.
       24     2     3     0     0     0 -2.7978371295e+00  1.5308520104e+01  5.1799024150e+02  5.2355268186e+02  7.4507326582e+01  2.354478e-13 9.
        5     1     3     0   101     0  1.0411906736e+02 -8.1202723824e+01  1.1148855780e+03  1.1226876478e+03  4.8000000000e+00 0. 9.
      -24     2     4     0     0     0 -4.1311606078e+01 -2.3875364221e+01  2.7494661509e+02  2.9030850175e+02  8.0041884176e+01  1.949912e-14 9.
       -5     1     4     0     0   102 -6.0009624152e+01  8.9769567941e+01  1.7226407122e+02  2.0336587854e+02  4.8000000000e+00 0. 9.
       -1     1     5     0     0   103 -2.1602464661e+00 -4.5440733751e+00 -1.3763037971e-01  5.0441163502e+00  3.3000000000e-01 0. 9.
        2     1     5     0   103     0 -6.3759066334e-01  1.9852593479e+01  5.1812787188e+02  5.1850856551e+02  3.3000000000e-01 0. 9.
        1     1     7     0   104     0 -6.0903662838e+01 -4.6067075692e+00  1.4245593711e+02  1.5499768005e+02  3.3000000000e-01 0. 9.
       -2     1     7     0     0   104  1.9592056760e+01 -1.9268656652e+01  1.3249067798e+02  1.3531082170e+02  3.3000000000e-01 0. 9.
#pdf    2   -2  3.246155e-01  4.602170e-03  2.090861e+02  2.717755e-01  7.988760e-01
</event>
<event>
    12  9999  1.000000e+00  2.410654e+02  7.904616e-03  1.033927e-01
       21    -1     0     0   101   102  0.0000000000e+00  0.0000000000e+00  2.5073746461e+02  2.5073746461e+02  0.0000000000e+00 0. 9.
       21    -1     0     0   103   101  0.0000000000e+00  0.0000000000e+00 -2.6919631759e+02  2.6919631759e+02  0.0000000000e+00 0. 9.
        6     2     1     2   103     0  1.5244230451e+02  7.6180009306e+01 -1.0616902349e+02  2.6346511812e+02  1.7058709475e+02  3.150522e-14 9.
       -6     2     1     2     0   102 -1.5244230451e+02 -7.6180009306e+01  8.7710170511e+01  2.5646866408e+02  1.7041435275e+02  7.381534e-16 9.
       24     2     3     0     0     0  8.5381538531e+01  9.8925828887e+01 -1.1599206884e+02  1.9181282673e+02  7.9130738146e+01  1.118722e-13 9.
        5     1     3     0   103     0  6.7060765980e+01 -2.2745819581e+01  9.8230453504e+00  7.1652291395e+01  4.8000000000e+00 0. 9.
      -24     2     4     0     0     0 -1.4001736133e+02 -6.3371743776e+01  1.2591920663e+02  2.1402574571e+02  7.9564651976e+01  1.231017e-13 9.
       -5     1     4     0     0   102 -1.2424943184e+01 -1.2808265529e+01 -3.8209036123e+01  4.2442918378e+01  4.8000000000e+00 0. 9.
       -1     1     5     0     0   104  8.3686460060e+01  4.7883682892e+01 -5.0749274673e+01  1.0895810417e+02  3.3000000000e-01 0. 9.
        2     1     5     0   104     0  1.6950784712e+00  5.1042145995e+01 -6.5242794169e+01  8.2854722555e+01  3.3000000000e-01 0. 9.
       11     1     7     0     0     0 -2.0071898615e+01 -1.6705965128e+00 -1.0043063591e+01  2.2506335403e+01  5.1100000000e-04 0. 9.
      -12     1     7     0     0     0 -1.1994546271e+02 -6.1701147263e+01  1.3596227022e+02  1.9151941030e+02  0.0000000000e+00 0. 9.
#pdf   21   21  3.857499e-02  4.141482e-02  2.410044e+02  2.471248e+00  2.296710e+00
</event>
<event>
    12  9999  1.000000e+00  1.745957e+02  7.875496e-03  1.075078e-01
       21    -1     0     0   101   102  0.0000000000e+00  0.0000000000e+00  2.0479167536e+02  2.0479167536e+02  0.0000000000e+00 0. 9.
       21    -1     0     0   103   101  0.0000000000e+00  0.0000000000e+00 -1.5860414788e+02  1.5860414788e+02  0.0000000000e+00 0. 9.
        6     2     1     2   103     0 -9.7703706921e+00  3.0272611810e+01 -2.1858202109e+01  1.7672619017e+02  1.7246006530e+02  9.274035e-14 9.
       -6     2     1     2     0   102  9.7703706921e+00 -3.0272611810e+01  6.8045729590e+01  1.8666963307e+02  1.7089013847e+02  6.547314e-13 9.
       24     2     3     0     0     0  3.6387836621e+01 -3.5401170986e+01 -1.3121440617e+01  9.5837397064e+01  8.0220427019e+01  3.854141e-14 9.
        5     1     3     0   103     0 -4.6158207313e+01  6.5673782796e+01 -8.7367614919e+00  8.0888793108e+01  4.8000000000e+00 0. 9.
      -24     2     4     0     0     0  5.6056094767e+01  1.4318451344e+01  4.4447825190e-01  9.3268881739e+01  7.3154514082e+01  9.729986e-14 9.
       -5     1     4     0     0   102 -4.6285724075e+01 -4.4591063153e+01  6.7601251338e+01  9.3400751329e+01  4.8000000000e+00 0. 9.
       -1     1     5     0     0   104  2.6523537220e+01  2.3132684473e+01 -9.0351272455e+00  3.6336779466e+01  3.3000000000e-01 0. 9.
        2     1     5     0   104     0  9.8642994007e+00 -5.8533855459e+01 -4.0863133712e+00  5.9500617598e+01  3.3000000000e-01 0. 9.
        1     1     7     0   105     0  6.0893343838e+01 -9.0260607062e+00 -1.6795827971e+01  6.3809700147e+01  3.3000000000e-01 0. 9.
       -4     1     7     0     0   105 -4.8372490711e+00  2.3344512050e+01  1.7240306223e+01  2.9459181592e+01  1.5000000000e+00 0. 9.
#pdf   21   21  3.150641e-02  2.440064e-02  1.738256e+02  3.062450e+00  3.880828e+00
</event>
<event>
    12  9999  1.000000e+00  1.849140e+02  7.880664e-03  1.067513e-01
       21    -1     0     0   101   102  0.0000000000e+00  0.0000000000e+00  2.7541849996e+01  2.7541849996e+01  0.0000000000e+00 0. 9.
       21    -1     0     0   102   103  0.0000000000e+00  0.0000000000e+00 -1.6224040783e+03  1.6224040783e+03  0.0000000000e+00 0. 9.
        6     2     1     2   101     0  6.7245553787e+01 -3.1374108499e+01 -3.9708075716e+02  4.3794625787e+02  1.6916707093e+02  9.537648e-14 9.
       -6     2     1     2     0   103 -6.7245553787e+01  3.1374108499e+01 -1.1977814711e+03  1.2119996704e+03  1.6957726647e+02  2.316535e-13 9.
       24     2     3     0     0     0  3.0811283695e+01 -2.5167639159e+01 -3.7941050444e+02  3.9669999586e+02  1.0879251155e+02  1.401980e-13 9.
        5     1     3     0   101     0  3.6434270092e+01 -6.2064693401e+00 -1.7670252718e+01  4.1246262012e+01  4.8000000000e+00 0. 9.
      -24     2     4     0     0     0 -4.2796629473e+01  8.6057204351e+01 -7.1657211105e+02  7.2705278765e+02  7.6764391341e+01  6.770605e-15 9.
       -5     1     4     0     0   103 -2.4448924314e+01 -5.4683095852e+01 -4.8120936006e+02  4.8494688274e+02  4.8000000000e+00 0. 9.
       -1     1     5     0     0   104  4.5536319868e+01  2.9421876617e+01 -1.2797138188e+02  1.3898196549e+02  3.3000000000e-01 0. 9.
        2     1     5     0   104     0 -1.4725036173e+01 -5.4589515775e+01 -2.5143912256e+02  2.5771803037e+02  3.3000000000e-01 0. 9.
       13     1     7     0     0     0  1.6029516198e+01  2.2948888431e+01 -3.1908977501e+02  3.2031530178e+02  1.0566000000e-01  5.239691e+05 9.
      -14     1     7     0     0     0 -5.8826145671e+01  6.3108315920e+01 -3.9748233604e+02  4.0673748587e+02  0.0000000000e+00 0. 9.
#pdf   21   21  4.237208e-03  2.496006e-01  1.847263e+02  1.504361e+01  1.683544e-01
</event>
<event>
    12  9999  1.000000e+00  1.817807e+02  7.879125e-03  1.069753e-01
       21    -1     0     0   101   102  0.0000000000e+00  0.0000000000e+00  1.8800747863e+02  1.8800747863e+02  0.0000000000e+00 0. 9.
       21    -1     0     0   102   103  0.0000000000e+00  0.0000000000e+00 -4.1989859149e+02  4.1989859149e+02  0.0000000000e+00 0. 9.
        6     2     1     2   101     0  9.0856407282e+00 -6.1715335322e+01  1.1584405987e+02  2.1548496281e+02  1.7065342513e+02  2.106241e-13 9.
       -6     2     1     2     0   103 -9.0856407282e+00  6.1715335322e+01 -3.4773517274e+02  3.9242110731e+02  1.7083103821e+02  6.602899e-14 9.
       24     2     3     0     0     0 -1.8613555930e+01  3.1050262046e+01  6.0385322649e+01  1.0380948169e+02  7.6285241424e+01  1.121434e-13 9.
        5     1     3     0   101     0  2.7699196658e+01 -9.2765597369e+01  5.5458737226e+01  1.1167548113e+02  4.8000000000e+00 0. 9.
      -24     2     4     0     0     0  5.9310792036e+01  5.2303617831e+01 -2.0971421248e+02  2.3802072546e+02  8.0127250953e+01  9.330797e-14 9.
       -5     1     4     0     0   103 -6.8396432764e+01  9.4117174910e+00 -1.3802096026e+02  1.5440038184e+02  4.8000000000e+00 0. 9.
       -3     1     5     0     0   104 -7.3775047272e+00  1.8670698778e+01 -1.5953300084e+01  2.5647228942e+01  5.0000000000e-01 0. 9.
        4     1     5     0   104     0 -1.1236051203e+01  1.2379563268e+01  7.6338622732e+01  7.8162252744e+01  1.5000000000e+00 0. 9.
       13     1     7     0     0     0  5.5241558824e+01  1.6938190028e+01 -1.8716600945e+02  1.9588174585e+02  1.0566000000e-01  6.674676e+05 9.
      -14     1     7     0     0     0  4.0692332123e+00  3.5365427803e+01 -2.2548203030e+01  4.2138979609e+01  0.0000000000e+00 0. 9.
#pdf   21   21  2.892423e-02  6.459978e-02  1.816973e+02  3.315695e+00  1.433335e+00
</event>
<event>
    12  9999  1.000000e+00  2.076843e+02  7.891135e-03  1.052536e-01
        2    -1     0     0   101     0  0.0000000000e+00  0.0000000000e+00  1.6321449397e+03  1.6321449397e+03  0.0000000000e+00 0. 9.
       -2    -1     0     0     0   102  0.0000000000e+00  0.0000000000e+00 -2.8750853550e+01  2.8750853550e+01  0.0000000000e+00 0. 9.
        6     2     1     2   101     0 -1.1951164136e+02  1.4517444353e+01  5.6802346027e+02  6.0503393796e+02  1.7006359415e+02  5.762512e-14 9.
       -6     2     1     2     0   102  1.1951164136e+02 -1.4517444353e+01  1.0353706258e+03  1.0558618552e+03  1.6839874082e+02  1.054994e-13 9.
       24     2     3     0     0     0 -4.8175167139e+01 -2.3438763396e+01  4.6303354693e+02  4.7246136099e+02  7.7132675888e+01  1.973588e-13 9.
        5     1     3     0   101     0 -7.1336474218e+01  3.7956207749e+01  1.0498991334e+02  1.3257257696e+02  4.8000000000e+00 0. 9.
      -24     2     4     0     0     0  1.7026709601e+01  3.4291472117e+01  3.4499151332e+02  3.5619634191e+02  7.9942953548e+01  1.247342e-13 9.
       -5     1     4     0     0   102  1.0248493176e+02 -4.8808916470e+01  6.9037911251e+02  6.9966551334e+02  4.8000000000e+00 0. 9.
      -11     1     5     0     0     0 -1.6874668570e+01  2.0603969922e+01  5.7788883353e+01  6.3630441263e+01  5.1100000000e-04 0. 9.
       12     1     5     0     0     0 -3.1300498570e+01 -4.4042733319e+01  4.0524466358e+02  4.0883091973e+02  0.0000000000e+00 0. 9.
        1     1     7     0   103     0  5.7852057005e+00  6.3289629709e+00  3.0956438967e+02  3.0968329731e+02  3.3000000000e-01 0. 9.
       -2     1     7     0     0   103  1.1241503901e+01  2.7962509146e+01  3.5427123650e+01  4.6513044598e+01  3.3000000000e-01 0. 9.
#pdf    2   -2  2.510992e-01  4.423208e-03  2.070071e+02  3.733747e-01  8.145236e-01
</event>
<event>
    12  9999  1.000000e+00  1.986122e+02  7.887104e-03  1.058246e-01
        1    -1     0     0   101     0  0.0000000000e+00  0.0000000000e+00  1.1905190257e+03  1.1905190257e+03  0.0000000000e+00 0. 9.
       -1    -1     0     0     0   102  0.0000000000e+00  0.0000000000e+00 -3.6084784523e+01  3.6084784523e+01  0.0000000000e+00 0. 9.
        6     2     1     2   101     0 -6.2301683681e+01 -7.7674988335e+01  3.9885804064e+02  4.4507081318e+02  1.7054438883e+02  6.163671e-13 9.
       -6     2     1     2     0   102  6.2301683681e+01  7.7674988335e+01  7.5557620050e+02  7.8153299701e+02  1.7315752089e+02  2.593128e-13 9.
       24     2     3     0     0     0 -4.4966229041e+01  1.9346354317e+01  1.4163389461e+02  1.6956952422e+02  7.9356286854e+01  1.701565e-14 9.
        5     1     3     0   101     0 -1.7335454640e+01 -9.7021342652e+01  2.5722414603e+02  2.7550128896e+02  4.8000000000e+00 0. 9.
      -24     2     4     0     0     0  4.1017026857e+01  1.0983556647e+02  6.9659743555e+02  7.1090103457e+02  7.9912737297e+01  2.272422e-15 9.
       -5     1     4     0     0   102  2.1284656824e+01 -3.2160578138e+01  5.8978764955e+01  7.0631962439e+01  4.8000000000e+00 0. 9.
       -3     1     5     0     0   103  2.3036353612e+01  3.3819915447e+00  3.8582858632e+01  4.5066599991e+01  5.0000000000e-01 0. 9.
        4     1     5     0   103     0 -6.8002582653e+01  1.5964362772e+01  1.0305103598e+02  1.2450292423e+02  1.5000000000e+00 0. 9.
        1     1     7     0   104     0 -2.2547875576e+01  1.4013646699e+01  1.5123634054e+02  1.5354910807e+02  3.3000000000e-01 0. 9.
       -2     1     7     0     0   104  6.3564902433e+01  9.5821919774e+01  5.4536109501e+02  5.5735192650e+02  3.3000000000e-01 0. 9.
#pdf    1   -1  1.831568e-01  5.551505e-03  1.974849e+02  2.400213e-01  7.399555e-01
</event>
<event>
    12  9999  1.000000e+00  1.756103e+02  7.876018e-03  1.074310e-01
       21    -1     0     0   101   102  0.0000000000e+00  0.0000000000e+00  3.6909716436e+02  3.6909716436e+02  0.0000000000e+00 0. 9.
       21    -1     0     0   102   103  0.0000000000e+00  0.0000000000e+00 -1.3426052339e+02  1.3426052339e+02  0.0000000000e+00 0. 9.
        6     2     1     2   101     0 -2.6291261187e+01 -2.6904285552e+01  2.7237355880e+02  3.2445161279e+02  1.7223943368e+02  3.242585e-14 9.
       -6     2     1     2     0   103  2.6291261187e+01  2.6904285552e+01 -3.7536917825e+01  1.7890607496e+02  1.7083118118e+02  9.766106e-14 9.
       24     2     3     0     0     0 -3.3617245081e+01 -7.7161679172e+01  1.3561107238e+02  1.7848417346e+02  7.9888630757e+01  9.611166e-14 9.
        5     1     3     0   101     0  7.3259838942e+00  5.0257393619e+01  1.3676248642e+02  1.4596743933e+02  4.8000000000e+00 0. 9.
      -24     2     4     0     0     0  2.1435003653e+01 -2.1189705877e+01 -7.7583028581e+01  1.1595096210e+02  8.0728162817e+01  3.508689e-14 9.
       -5     1     4     0     0   103  4.8562575345e+00  4.8093991429e+01  4.0046110756e+01  6.2955112862e+01  4.8000000000e+00 0. 9.
       -1     1     5     0     0   104  2.2376968847e+01 -4.7479583494e+01  5.6523548491e+01  7.7136632138e+01  3.3000000000e-01 0. 9.
        2     1     5     0   104     0 -5.5994213928e+01 -2.9682095677e+01  7.9087523887e+01  1.0134754132e+02  3.3000000000e-01 0. 9.
       15     1     7     0     0     0  1.5246396670e+01  2.2882638268e+01 -1.2389027794e+00  2.7581872941e+01  1.7768200000e+00  4.442187e-02 9.
      -16     1     7     0     0     0  6.1886069826e+00 -4.4072344144e+01 -7.6344125802e+01  8.8369089161e+01  0.0000000000e+00 0. 9.
#pdf   21   21  5.678418e-02  2.065547e-02  1.749239e+02  1.666088e+00  4.496273e+00
</event>
<event>
    12  9999  1.000000e+00  2.010157e+02  7.888190e-03  1.056702e-01
       21    -1     0     0   101   102  0.0000000000e+00  0.0000000000e+00  1.3366151657e+02  1.3366151657e+02  0.0000000000e+00 0. 9.
       21    -1     0     0   102   103  0.0000000000e+00  0.0000000000e+00 -4.8805584654e+02  4.8805584654e+02  0.0000000000e+00 0. 9.
        6     2     1     2   101     0  3.3096965133e+01  9.7734913688e+01  1.5256510973e+01  2.0033877756e+02  1.7104193116e+02  1.960866e-13 9.
       -6     2     1     2     0   103 -3.3096965133e+01 -9.7734913688e+01 -3.6965084095e+02  4.2137858554e+02  1.7398461336e+02  5.359104e-14 9.
       24     2     3     0     0     0  1.8408952413e+01  1.3187526566e+02  4.9811729123e-01  1.6006283519e+02  8.8825040751e+01  2.283958e-13 9.
        5     1     3     0   101     0  1.4688012720e+01 -3.4140351973e+01  1.4758393681e+01  4.0275942380e+01  4.8000000000e+00 0. 9.
      -24     2     4     0     0     0 -3.2044013444e+01 -1.3701691755e+02 -3.1390607374e+02  3.5300678137e+02  7.9223166258e+01  1.391131e-14 9.
       -5     1     4     0     0   103 -1.0529516894e+00  3.9282003858e+01 -5.5744767203e+01  6.8371804166e+01  4.8000000000e+00 0. 9.
      -15     1     5     0     0     0 -2.6989228360e+01  9.8096799998e+01  1.1539744243e+01  1.0240958648e+02  1.7768200000e+00  1.066736e-01 9.
       16     1     5     0     0     0  4.5398180773e+01  3.3778465664e+01 -1.1041626952e+01  5.7653248701e+01  0.0000000000e+00 0. 9.
       11     1     7     0     0     0 -4.5057264936e+00 -5.3543965433e+01 -2.1069598009e+02  2.1743977058e+02  5.1100000000e-04 0. 9.
      -12     1     7     0     0     0 -2.7538286950e+01 -8.3472952114e+01 -1.0321009365e+02  1.3556701079e+02  0.0000000000e+00 0. 9.
#pdf   21   21  2.056331e-02  7.508551e-02  1.997570e+02  4.503268e+00  1.187104e+00
</event>
<event>
    12  9999  1.000000e+00  2.495419e+02  7.907748e-03  1.029707e-01
       21    -1     0     0   101   102  0.0000000000e+00  0.0000000000e+00  9.4405053152e+02  9.4405053152e+02  0.0000000000e+00 0. 9.
       21    -1     0     0   102   103  0.0000000000e+00  0.0000000000e+00 -7.5391382674e+01  7.5391382674e+01  0.0000000000e+00 0. 9.
        6     2     1     2   101     0  9.8115626864e+01 -1.5305518622e+02  6.1363535267e+02  6.6219804553e+02  1.7001570280e+02  2.740040e-13 9.
       -6     2     1     2     0   103 -9.8115626864e+01  1.5305518622e+02  2.5502379618e+02  3.5724386866e+02  1.7185307334e+02  1.767437e-13 9.
       24     2     3     0     0     0  1.1744806892e+02 -1.3853362485e+02  3.9461107543e+02  4.4179093794e+02  8.0471845279e+01  5.845266e-14 9.
        5     1     3     0   101     0 -1.9332442056e+01 -1.4521561375e+01  2.1902427723e+02  2.2040710759e+02  4.8000000000e+00 0. 9.
      -24     2     4     0     0     0 -5.8444857482e+01  2.7076071792e+01  1.7407912419e+02  2.0226133049e+02  8.0356638193e+01  3.458529e-14 9.
       -5     1     4     0     0   103 -3.9670769382e+01  1.2597911443e+02  8.0944671983e+01  1.5498253817e+02  4.8000000000e+00 0. 9.
      -11     1     5     0     0     0  9.1135445738e+01 -4.7773295478e+01  2.3034929512e+02  2.5228704880e+02  5.1100000000e-04 0. 9.
       12     1     5     0     0     0  2.6312623182e+01 -9.0760329367e+01  1.6426178032e+02  1.8950388914e+02  0.0000000000e+00 0. 9.
        1     1     7     0   104     0  1.8059542603e+01 -5.7630897673e+00  2.3457707055e+01  3.0161783816e+01  3.3000000000e-01 0. 9.
       -2     1     7     0     0   104 -7.6504400085e+01  3.2839161560e+01  1.5062141714e+02  1.7209954667e+02  3.3000000000e-01 0. 9.
#pdf   21   21  1.452385e-01  1.159867e-02  2.489134e+02  4.562972e-01  7.237290e+00
</event>
<event>
    12  9999  1.000000e+00  2.667914e+02  7.913813e-03  1.021643e-01
       21    -1     0     0   101   102  0.0000000000e+00  0.0000000000e+00  9.0050232845e+02  9.0050232845e+02  0.0000000000e+00 0. 9.
       21    -1     0     0   102   103  0.0000000000e+00  0.0000000000e+00 -8.0890569170e+01  8.0890569170e+01  0.0000000000e+00 0. 9.
        6     2     1     2   101     0 -1.2493476892e+02  1.6033117062e+02  3.3564826618e+02  4.2877029262e+02  1.7282773065e+02  2.195680e-13 9.
       -6     2     1     2     0   103  1.2493476892e+02 -1.6033117062e+02  4.8396349310e+02  5.5262260501e+02  1.7278975709e+02  9.382000e-14 9.
       24     2     3     0     0     0  4.4442348614e+00  5.5304582684e+01  1.0732852996e+02  1.4606469886e+02  8.2080051294e+01  3.673951e-14 9.
        5     1     3     0   101     0 -1.2937900378e+02  1.0502658793e+02  2.2831973623e+02  2.8270559376e+02  4.8000000000e+00 0. 9.
      -24     2     4     0     0     0  7.1023035067e+01 -1.2883069296e+02  4.5189803239e+02  4.8226644742e+02  8.2021190411e+01  7.814035e-14 9.
       -5     1     4     0     0   103  5.3911733849e+01 -3.1500477657e+01  3.2065460713e+01  7.0356157584e+01  4.8000000000e+00 0. 9.
       -1     1     5     0     0   104  2.0228683065e+01  6.5671416833e+00  8.9231231575e+01  9.1731393518e+01  3.3000000000e-01 0. 9.
        2     1     5     0   104     0 -1.5784448203e+01  4.8737441001e+01  1.8097298381e+01  5.4333305339e+01  3.3000000000e-01 0. 9.
       11     1     7     0     0     0  6.2256038676e+01 -2.9925519217e+01  1.7892197061e+02  1.9179265528e+02  5.1100000000e-04 0. 9.
      -12     1     7     0     0     0  8.7669963909e+00 -9.8905173745e+01  2.7297606178e+02  2.9047379215e+02  0.0000000000e+00 0. 9.
#pdf   21   21  1.385388e-01  1.244470e-02  2.667791e+02  4.880359e-01  6.840033e+00
</event>
<event>
    12  9999  1.000000e+00  1.835038e+02  7.879974e-03  1.068515e-01
       21    -1     0     0   101   102  0.0000000000e+00  0.0000000000e+00  4.2259580008e+01  4.2259580008e+01  0.0000000000e+00 0. 9.
       21    -1     0     0   102   103  0.0000000000e+00  0.0000000000e+00 -7.9939199824e+02  7.9939199824e+02  0.0000000000e+00 0. 9.
        6     2     1     2   101     0  6.3712654964e+01  2.1167824492e+01 -3.5463238589e+02  3.9927317602e+02  1.7072656728e+02  8.359047e-14 9.
       -6     2     1     2     0   103 -6.3712654964e+01 -2.1167824492e+01 -4.0250003235e+02  4.4237840222e+02  1.7083616572e+02  1.289836e-13 9.
       24     2     3     0     0     0  7.5200062955e+01 -5.1707317099e+00 -3.5338321257e+02  3.7011360608e+02  8.0141128955e+01  4.964828e-14 9.
        5     1     3     0   101     0 -1.1487407990e+01  2.6338556202e+01 -1.2491733205e+00  2.9159569940e+01  4.8000000000e+00 0. 9.
      -24     2     4     0     0     0  1.0074609940e+01  1.4503902181e+01 -7.8128376136e+01  1.0777857572e+02  7.2113225430e+01  2.321108e-15 9.
       -5     1     4     0     0   103 -7.3787264904e+01 -3.5671726673e+01 -3.2437165621e+02  3.3459982651e+02  4.8000000000e+00 0. 9.
       -1     1     5     0     0   104  5.1188106195e+01  1.9487307408e+01 -3.0966631761e+02  3.1447307441e+02  3.3000000000e-01 0. 9.
        2     1     5     0   104     0  2.4011956759e+01 -2.4658039118e+01 -4.3716894958e+01  5.5640531678e+01  3.3000000000e-01 0. 9.
       13     1     7     0     0     0 -6.4621832144e+00  1.4651750986e+00  1.2815925249e+01  1.4427946977e+01  1.0566000000e-01  8.198130e+05 9.
      -14     1     7     0     0     0  1.6536793154e+01  1.3038727083e+01 -9.0944301384e+01  9.3350628739e+01  0.0000000000e+00 0. 9.
#pdf   21   21  6.501474e-03  1.229834e-01  1.834528e+02  1.115348e+01  6.147418e-01
</event>
<event>
    12  9999  1.000000e+00  1.886896e+02  7.882484e-03  1.064875e-01
       21    -1     0     0   101   102  0.0000000000e+00  0.0000000000e+00  1.7656417254e+02  1.7656417254e+02  0.0000000000e+00 0. 9.
       21    -1     0     0   103   101  0.0000000000e+00  0.0000000000e+00 -2.0243274029e+02  2.0243274029e+02  0.0000000000e+00 0. 9.
        6     2     1     2   103     0  2.2265564716e+01  7.7681432556e+01 -1.1434298330e+00  1.8881855750e+02  1.7064870315e+02  3.272085e-13 9.
       -6     2     1     2     0   102 -2.2265564716e+01 -7.7681432556e+01 -2.4725137910e+01  1.9017835533e+02  1.7037110687e+02  5.306390e-14 9.
       24     2     3     0     0     0  4.8231159846e+01  8.1777720156e+01 -4.9610803408e+01  1.3347311501e+02  7.9624118979e+01  1.402215e-13 9.
        5     1     3     0   103     0 -2.5965595130e+01 -4.0962875996e+00  4.8467373575e+01  5.5345442484e+01  4.8000000000e+00 0. 9.
      -24     2     4     0     0     0 -1.2491562243e+01 -6.6604686065e+01  4.8430677805e+01  1.1539173347e+02  7.9859240335e+01  5.259840e-14 9.
       -5     1     4     0     0   102 -9.7740024731e+00 -1.1076746491e+01 -7.3155815715e+01  7.4786621866e+01  4.8000000000e+00 0. 9.
       -3     1     5     0     0   104  2.7498475156e+01 -1.0109171682e+01 -7.2910508721e+00  3.0195544552e+01  5.0000000000e-01 0. 9.
        4     1     5     0   104     0  2.0732684690e+01  9.1886891837e+01 -4.2319752536e+01  1.0327757046e+02  1.5000000000e+00 0. 9.
        3     1     7     0   105     0 -1.2531741760e+01  1.3981203634e+01 -4.0474646416e+00  1.9213291665e+01  5.0000000000e-01 0. 9.
       -4     1     7     0     0   105  4.0179517700e-02 -8.0585889698e+01  5.2478142446e+01  9.6178441802e+01  1.5000000000e+00 0. 9.
#pdf   21   21  2.716372e-02  3.114350e-02  1.885642e+02  3.511493e+00  3.087488e+00
</event>
<event>
    12  9999  1.000000e+00  1.980566e+02  7.886852e-03  1.058606e-01
       21    -1     0     0   101   102  0.0000000000e+00  0.0000000000e+00  3.6092041962e+02  3.6092041962e+02  0.0000000000e+00 0. 9.
       21    -1     0     0   102   103  0.0000000000e+00  0.0000000000e+00 -1.1252653118e+02  1.1252653118e+02  0.0000000000e+00 0. 9.
        6     2     1     2   101     0 -6.2901220764e+01  7.9069988354e+01  1.6862942524e+02  2.6101990012e+02  1.7171743817e+02  3.539827e-13 9.
       -6     2     1     2     0   103  6.2901220764e+01 -7.9069988354e+01  7.9764463203e+01  2.1242705068e+02  1.6898004508e+02  2.793272e-13 9.
       24     2     3     0     0     0 -7.9463869800e+00  3.4831537837e+01  1.6877083656e+02  1.9030827267e+02  8.0357092263e+01  8.777384e-14 9.
        5     1     3     0   101     0 -5.4954833784e+01  4.4238450517e+01 -1.4141131868e-01  7.0711627457e+01  4.8000000000e+00 0. 9.
      -24     2     4     0     0     0  2.1739188798e+01 -4.0356071738e+00  9.2826731291e+01  1.2571987633e+02  8.1852347605e+01  4.221905e-14 9.
       -5     1     4     0     0   103  4.1162031967e+01 -7.5034381180e+01 -1.3062268088e+01  8.6707174342e+01  4.8000000000e+00 0. 9.
      -13     1     5     0     0     0 -9.0864845747e+00  7.3647759392e+00 -6.1674497724e+00  1.3223188999e+01  1.0566000000e-01  4.296021e+04 9.
       14     1     5     0     0     0  1.1400975947e+00  2.7466761898e+01  1.7493828634e+02  1.7708508367e+02  0.0000000000e+00 0. 9.
        3     1     7     0   104     0 -2.9755807518e+01  4.1311309058e+00  1.9817923589e+01  3.5992699523e+01  5.0000000000e-01 0. 9.
       -4     1     7     0     0   104  5.1494996316e+01 -8.1667380795e+00  7.3008807702e+01  8.9727176811e+01  1.5000000000e+00 0. 9.
#pdf   21   21  5.552622e-02  1.731177e-02  1.968829e+02  1.694935e+00  5.221869e+00
</event>
<event>
    12  9999  1.000000e+00  2.677189e+02  7.914129e-03  1.021228e-01
       21    -1     0     0   101   102  0.0000000000e+00  0.0000000000e+00  1.2112796451e+02  1.2112796451e+02  0.0000000000e+00 0. 9.
       21    -1     0     0   102   103  0.0000000000e+00  0.0000000000e+00 -8.8494183195e+02  8.8494183195e+02  0.0000000000e+00 0. 9.
        6     2     1     2   101     0 -1.3270987661e+02  1.5548044609e+02 -6.7149538522e+02  7.2290690452e+02  1.7292269882e+02  1.022504e-14 9.
       -6     2     1     2     0   103  1.3270987661e+02 -1.5548044609e+02 -9.2318482220e+01  2.8316289195e+02  1.7283645666e+02  1.652423e-13 9.
       24     2     3     0     0     0 -1.0892297703e+02  1.5524207532e+02 -3.7565140096e+02  4.2606927814e+02  6.6758803602e+01  3.454338e-14 9.
        5     1     3     0   101     0 -2.3786899586e+01  2.3837077159e-01 -2.9584398427e+02  2.9683762639e+02  4.8000000000e+00 0. 9.
      -24     2     4     0     0     0  1.0760991948e+02 -1.6359748708e+02 -1.2067983117e+02  2.4413341185e+02  8.1813620976e+01  2.426586e-13 9.
       -5     1     4     0     0   103  2.5099957131e+01  8.1170409920e+00  2.8361348953e+01  3.9029480100e+01  4.8000000000e+00 0. 9.
       -1     1     5     0     0   104 -8.3812043659e+01  1.5464077759e+02 -3.3134483745e+02  3.7513696027e+02  3.3000000000e-01 0. 9.
        2     1     5     0   104     0 -2.5110933367e+01  6.0129772765e-01 -4.4306563505e+01  5.0932317865e+01  3.3000000000e-01 0. 9.
        3     1     7     0   105     0  1.3883849764e+01 -2.3966762151e+01 -5.8682625435e+01  6.4892738424e+01  5.0000000000e-01 0. 9.
       -4     1     7     0     0   105  9.3726069716e+01 -1.3963072493e+02 -6.1997205738e+01  1.7924067342e+02  1.5000000000e+00 0. 9.
#pdf   21   21  1.863507e-02  1.361449e-01  2.676911e+02  4.877724e+00  5.015801e-01
</event>
<event>
    12  9999  1.000000e+00  1.798107e+02  7.878144e-03  1.071187e-01
       21    -1     0     0   101   102  0.0000000000e+00  0.0000000000e+00  3.3781934639e+02  3.3781934639e+02  0.0000000000e+00 0. 9.
       21    -1     0     0   103   101  0.0000000000e+00  0.0000000000e+00 -1.4467034245e+02  1.4467034245e+02  0.0000000000e+00 0. 9.
        6     2     1     2   103     0  4.7991987567e+01 -3.1205119434e+01 -4.3899764684e+01  1.8474065723e+02  1.7007330991e+02  1.212735e-13 9.
       -6     2     1     2     0   102 -4.7991987567e+01  3.1205119434e+01  2.3704876862e+02  2.9774903161e+02  1.7083728155e+02  6.475927e-14 9.
       24     2     3     0     0     0  8.6486557945e+01 -2.0701489803e+01  6.3281062680e+00  1.2041307990e+02  8.0936941487e+01  9.721449e-14 9.
        5     1     3     0   103     0 -3.8494570379e+01 -1.0503629631e+01 -5.0227870952e+01  6.4327577324e+01  4.8000000000e+00 0. 9.
      -24     2     4     0     0     0 -3.8531074743e+00  7.7448484965e+01  1.1907666241e+02  1.6348381855e+02  8.0836830332e+01  8.233663e-15 9.
       -5     1     4     0     0   102 -4.4138880092e+01 -4.6243365531e+01  1.1797210622e+02  1.3426521305e+02  4.8000000000e+00 0. 9.
       -3     1     5     0     0   104  9.1100831267e+01  7.7062412273e+00  4.8456032325e+00  9.1555870823e+01  5.0000000000e-01 0. 9.
        4     1     5     0   104     0 -4.6142733222e+00 -2.8407731030e+01  1.4825030355e+00  2.8857209079e+01  1.5000000000e+00 0. 9.
        3     1     7     0   105     0  2.9001890020e+01  1.2696031777e+01  6.7035073458e+01  7.4136697533e+01  5.0000000000e-01 0. 9.
       -4     1     7     0     0   105 -3.2854997494e+01  6.4752453188e+01  5.2041588950e+01  8.9347121020e+01  1.5000000000e+00 0. 9.
#pdf   21   21  5.197221e-02  2.225698e-02  1.794489e+02  1.834696e+00  4.209593e+00
</event>
<event>
    12  9999  1.000000e+00  2.126170e+02  7.893255e-03  1.049560e-01
       21    -1     0     0   101   102  0.0000000000e+00  0.0000000000e+00  3.2330944113e+02  3.2330944113e+02  0.0000000000e+00 0. 9.
       21    -1     0     0   103   101  0.0000000000e+00  0.0000000000e+00 -2.1554873058e+02  2.1554873058e+02  0.0000000000e+00 0. 9.
        6     2     1     2   103     0  6.7360143893e+00 -1.2866609095e+02 -1.0601311946e+02  2.3647359366e+02  1.6757279657e+02  5.461317e-13 9.
       -6     2     1     2     0   102 -6.7360143893e+00  1.2866609095e+02  2.1377383001e+02  3.0238457805e+02  1.7069518387e+02  3.224884e-13 9.
       24     2     3     0     0     0  1.5242956968e+01 -4.1092031463e+01  6.0822170852e+00  9.3890325209e+01  8.2810005532e+01  2.307234e-13 9.
        5     1     3     0   103     0 -8.5069425791e+00 -8.7574059491e+01 -1.1209533654e+02  1.4258326845e+02  4.8000000000e+00 0. 9.
      -24     2     4     0     0     0 -3.2295754391e+01  5.8656493086e+01  3.7610552587e+01  1.1104408465e+02  8.0203710244e+01  7.648394e-15 9.
       -5     1     4     0     0   102  2.5559740002e+01  7.0009597868e+01  1.7616327742e+02  1.9134049340e+02  4.8000000000e+00 0. 9.
      -13     1     5     0     0     0  4.5939778408e+00 -6.5796792392e+01 -1.3831345006e+00  6.5971560134e+01  1.0566000000e-01  1.160268e+06 9.
       14     1     5     0     0     0  1.0648979128e+01  2.4704760928e+01  7.4653515858e+00  2.7918765075e+01  0.0000000000e+00 0. 9.
        1     1     7     0   104     0  4.2023898590e-01 -1.7293931996e+01 -5.0054137710e+00  1.8011655995e+01  3.3000000000e-01 0. 9.
       -2     1     7     0     0   104 -3.2715993377e+01  7.5950425082e+01  4.2615966358e+01  9.3032428654e+01  3.3000000000e-01 0. 9.
#pdf   21   21  4.973991e-02  3.316134e-02  2.113788e+02  1.904823e+00  2.892125e+00
</event>
<event>
    12  9999  1.000000e+00  1.926568e+02  7.884359e-03  1.062173e-01
       21    -1     0     0   101   102  0.0000000000e+00  0.0000000000e+00  1.3955915674e+02  1.3955915674e+02  0.0000000000e+00 0. 9.
       21    -1     0     0   102   103  0.0000000000e+00  0.0000000000e+00 -3.2813745267e+02  3.2813745267e+02  0.0000000000e+00 0. 9.
        6     2     1     2   101     0  8.1712854542e+01 -4.7685527720e+01  6.1597026916e+00  1.9599688970e+02  1.7153990406e+02  8.557687e-14 9.
       -6     2     1     2     0   103 -8.1712854542e+01  4.7685527720e+01 -1.9473799862e+02  2.7169971971e+02  1.6415526015e+02  1.116274e-13 9.
       24     2     3     0     0     0  3.5614473745e+01 -8.0531480416e+01 -3.8814375450e+01  1.2354259359e+02  7.7475845335e+01  3.982104e-13 9.
        5     1     3     0   101     0  4.6098380798e+01  3.2845952697e+01  4.4974078141e+01  7.2454296114e+01  4.8000000000e+00 0. 9.
      -24     2     4     0     0     0  1.3206663484e+01  4.1770409270e+00 -1.0315434582e+02  1.3272738871e+02  8.2364294574e+01  7.792123e-15 9.
       -5     1     4     0     0   103 -9.4919518026e+01  4.3508486793e+01 -9.1583652800e+01  1.3897233101e+02  4.8000000000e+00 0. 9.
      -15     1     5     0     0     0 -5.9852000366e+00  1.2962912027e+01 -9.1069315408e-01  1.4416870639e+01  1.7768200000e+00  1.763329e-01 9.
       16     1     5     0     0     0  4.1599673781e+01 -9.3494392443e+01 -3.7903682296e+01  1.0912572295e+02  0.0000000000e+00 0. 9.
        1     1     7     0   104     0  3.0686712927e+01  3.2261885443e+01 -3.3850959810e+01  5.5932995473e+01  3.3000000000e-01 0. 9.
       -2     1     7     0     0   104 -1.7480049443e+01 -2.8084844516e+01 -6.9303386009e+01  7.6794393235e+01  3.3000000000e-01 0. 9.
#pdf   21   21  2.147064e-02  5.048269e-02  1.894673e+02  4.340603e+00  1.887452e+00
</event>
<event>
    12  9999  1.000000e+00  2.017094e+02  7.888500e-03  1.056260e-01
       21    -1     0     0   101   102  0.0000000000e+00  0.0000000000e+00  2.1571781682e+02  2.1571781682e+02  0.0000000000e+00 0. 9.
       21    -1     0     0   103   101  0.0000000000e+00  0.0000000000e+00 -2.0770124798e+02  2.0770124798e+02  0.0000000000e+00 0. 9.
        6     2     1     2   103     0  1.0176022978e+02  5.8985355525e+00 -6.0052799860e+01  2.1325501900e+02  1.7743006304e+02  1.706631e-14 9.
       -6     2     1     2     0   102 -1.0176022978e+02 -5.8985355525e+00  6.8069368697e+01  2.1016404580e+02  1.7072067861e+02  1.281147e-13 9.
       24     2     3     0     0     0  4.1252406181e+00 -1.8745615789e+01  1.3767281283e+01  8.8305550471e+01  8.5087698809e+01  9.124504e-14 9.
        5     1     3     0   103     0  9.7634989165e+01  2.4644151342e+01 -7.3820081144e+01  1.2494946853e+02  4.8000000000e+00 0. 9.
      -24     2     4     0     0     0  2.9010853109e+00  3.1870162635e+01  1.5885096245e+01  8.7173380583e+01  7.9515649009e+01  4.835481e-14 9.
       -5     1     4     0     0   102 -1.0466131509e+02 -3.7768698188e+01  5.2184272452e+01  1.2299066522e+02  4.8000000000e+00 0. 9.
      -15     1     5     0     0     0 -1.8029486479e+01 -2.7157689971e+01 -2.6187521698e+01  4.1851474159e+01  1.7768200000e+00  6.215252e-02 9.
       16     1     5     0     0     0  2.2154727097e+01  8.4120741815e+00  3.9954802982e+01  4.6454076313e+01  0.0000000000e+00 0. 9.
        1     1     7     0   104     0  1.3781266332e+01 -2.2621707123e+01  1.7173765523e+01  3.1570746857e+01  3.3000000000e-01 0. 9.
       -4     1     7     0     0   104 -1.0880181021e+01  5.4491869758e+01 -1.2886692786e+00  5.5602633726e+01  1.5000000000e+00 0. 9.
#pdf   21   21  3.318736e-02  3.195404e-02  1.988353e+02  2.897636e+00  3.005968e+00
</event>
<event>
    12  9999  1.000000e+00  1.782289e+02  7.877349e-03  1.072352e-01
       21    -1     0     0   101   102  0.0000000000e+00  0.0000000000e+00  2.6376841196e+02  2.6376841196e+02  0.0000000000e+00 0. 9.
       21    -1     0     0   103   101  0.0000000000e+00  0.0000000000e+00 -1.2113846114e+02  1.2113846114e+02  0.0000000000e+00 0. 9.
        6     2     1     2   103     0 -3.8662864271e+01 -3.4008082791e+01  8.5545708427e+01  1.9669906965e+02  1.6947297425e+02  2.971801e-13 9.
       -6     2     1     2     0   102  3.8662864271e+01  3.4008082791e+01  5.7084242387e+01  1.8820780345e+02  1.7179115164e+02  2.774625e-14 9.
       24     2     3     0     0     0  2.7030832596e+00 -7.1825268556e+01  8.9900546004e+01  1.4027845494e+02  8.0185789797e+01  4.768415e-14 9.
        5     1     3     0   103     0 -4.1365947531e+01  3.7817185764e+01 -4.3548375780e+00  5.6420614713e+01  4.8000000000e+00 0. 9.
      -24     2     4     0     0     0  5.7553678708e+01  4.7677821203e+01  9.3354877046e+01  1.4482205052e+02  8.1686551417e+01  9.331184e-15 9.
       -5     1     4     0     0   102 -1.8890814437e+01 -1.3669738412e+01 -3.6270634658e+01  4.3385752925e+01  4.8000000000e+00 0. 9.
      -13     1     5     0     0     0 -2.1079210692e+01 -5.4424546737e+01  1.5697714777e+01  6.0438347299e+01  1.0566000000e-01  1.548665e+06 9.
       14     1     5     0     0     0  2.3782293952e+01 -1.7400721818e+01  7.4202831228e+01  7.9840107638e+01  0.0000000000e+00 0. 9.
        1     1     7     0   104     0 -5.3896028258e+00  3.9099535800e+00  6.1404489572e+01  6.1765328424e+01  3.3000000000e-01 0. 9.
       -2     1     7     0     0   104  6.2943281534e+01  4.3767867623e+01  3.1950387474e+01  8.3056722101e+01  3.3000000000e-01 0. 9.
#pdf   21   21  4.057976e-02  1.863669e-02  1.771227e+02  2.384227e+00  4.911516e+00
</event>
<event>
    12  9999  1.000000e+00  1.843791e+02  7.880403e-03  1.067892e-01
       21    -1     0     0   101   102  0.0000000000e+00  0.0000000000e+00  3.2515125763e+02  3.2515125763e+02  0.0000000000e+00 0. 9.
       21    -1     0     0   103   101  0.0000000000e+00  0.0000000000e+00 -1.2497561892e+02  1.2497561892e+02  0.0000000000e+00 0. 9.
        6     2     1     2   103     0 -4.3798319355e+01 -6.7929604721e+01  1.0945237177e+01  1.8852813338e+02  1.6997157081e+02  8.137973e-14 9.
       -6     2     1     2     0   102  4.3798319355e+01  6.7929604721e+01  1.8923040153e+02  2.6159874317e+02  1.6153338227e+02  6.232966e-14 9.
       24     2     3     0     0     0  3.8048149872e+01 -3.0529644966e+01 -1.4957380338e+01  9.4764669769e+01  7.9855484967e+01  5.016916e-14 9.
        5     1     3     0   103     0 -8.1846469228e+01 -3.7399959755e+01  2.5902617515e+01  9.3763463613e+01  4.8000000000e+00 0. 9.
      -24     2     4     0     0     0  4.8863247922e+01  7.1128144543e+01  2.0907175842e+02  2.4032426076e+02  8.1227582746e+01  8.285693e-15 9.
       -5     1     4     0     0   102 -5.0649285671e+00 -3.1985398219e+00 -1.9841356889e+01  2.1274482404e+01  4.8000000000e+00 0. 9.
       -3     1     5     0     0   104  1.8222075754e+01  1.4922237660e+01  2.2519505903e+01  3.2589804658e+01  5.0000000000e-01 0. 9.
        4     1     5     0   104     0  1.9826074118e+01 -4.5451882626e+01 -3.7476886241e+01  6.2174865111e+01  1.5000000000e+00 0. 9.
       13     1     7     0     0     0  4.3776359073e+01 -8.3251936805e-01  5.5829811976e+01  7.0950981470e+01  1.0566000000e-01  1.042314e+06 9.
      -14     1     7     0     0     0  5.0868888493e+00  7.1960663911e+01  1.5324194644e+02  1.6937327929e+02  0.0000000000e+00 0. 9.
#pdf   21   21  5.002327e-02  1.922702e-02  1.806260e+02  1.911811e+00  4.781203e+00
</event>
<event>
    12  9999  1.000000e+00  1.856840e+02  7.881038e-03  1.066969e-01
        2    -1     0     0   101     0  0.0000000000e+00  0.0000000000e+00  1.0007513939e+03  1.0007513939e+03  0.0000000000e+00 0. 9.
       -2    -1     0     0     0   102  0.0000000000e+00  0.0000000000e+00 -4.1896227036e+01  4.1896227036e+01  0.0000000000e+00 0. 9.
        6     2     1     2   101     0  3.4882962608e+01 -6.4959615392e+01  2.6067184412e+02  3.2031299932e+02  1.7092113534e+02  8.297154e-14 9.
       -6     2     1     2     0   102 -3.4882962608e+01  6.4959615392e+01  6.9818332273e+02  7.2233462160e+02  1.6991403918e+02  1.779847e-13 9.
       24     2     3     0     0     0 -3.1272724450e+01 -4.8516145650e+01  2.1147148172e+02  2.3610683394e+02  8.7718012802e+01  2.461108e-14 9.
        5     1     3     0   101     0  6.6155687058e+01 -1.6443469742e+01  4.9200362394e+01  8.4206165374e+01  4.8000000000e+00 0. 9.
      -24     2     4     0     0     0 -4.7579549495e+01  6.8724552068e+01  2.7913225387e+02  3.0304687269e+02  8.3280936081e+01  9.831924e-16 9.
       -5     1     4     0     0   102  1.2696586886e+01 -3.7649366753e+00  4.1905106886e+02  4.1928774890e+02  4.8000000000e+00 0. 9.
       -3     1     5     0     0   103  1.2703762616e+01 -5.7678072364e+01  1.0372936329e+02  1.1936572551e+02  5.0000000000e-01 0. 9.
        4     1     5     0   103     0 -4.3976487066e+01  9.1619267143e+00  1.0774211843e+02  1.1674110844e+02  1.5000000000e+00 0. 9.
        3     1     7     0   104     0 -2.1927265920e+01  1.0747646227e+01  2.0071715552e+02  2.0219778290e+02  5.0000000000e-01 0. 9.
       -4     1     7     0     0   104 -2.5652283574e+01  5.7976905841e+01  7.8415098347e+01  1.0084908979e+02  1.5000000000e+00 0. 9.
#pdf    2   -2  1.539618e-01  6.445573e-03  1.852224e+02  5.145231e-01  6.638554e-01
</event>
<event>
    12  9999  1.000000e+00  2.033450e+02  7.889229e-03  1.055227e-01
       21    -1     0     0   101   102  0.0000000000e+00  0.0000000000e+00  1.1912465697e+02  1.1912465697e+02  0.0000000000e+00 0. 9.
       21    -1     0     0   102   103  0.0000000000e+00  0.0000000000e+00 -3.8506574210e+02  3.8506574210e+02  0.0000000000e+00 0. 9.
        6     2     1     2   101     0  9.9653603541e+01 -5.6453772055e+01 -5.3973313728e+01  2.1063381621e+02  1.6833186525e+02  1.207208e-14 9.
       -6     2     1     2     0   103 -9.9653603541e+01  5.6453772055e+01 -2.1196777140e+02  2.9355658286e+02  1.6771184260e+02  5.866094e-14 9.
       24     2     3     0     0     0  5.0762485740e+01  9.0586022033e+00 -8.0692651395e+01  1.2449917982e+02  7.9560376789e+01  4.213053e-15 9.
        5     1     3     0   101     0  4.8891117801e+01 -6.5512374258e+01  2.6719337667e+01  8.6134636390e+01  4.8000000000e+00 0. 9.
      -24     2     4     0     0     0 -5.5278680732e+01  8.5893988545e+01 -2.0018199465e+02  2.3880437144e+02  8.0753866940e+01  8.009109e-14 9.
       -5     1     4     0     0   103 -4.4374922809e+01 -2.9440216490e+01 -1.1785776754e+01  5.4752211416e+01  4.8000000000e+00 0. 9.
       -1     1     5     0     0   104  5.4505153154e+01  3.6892806006e+01 -4.8380699735e+01  8.1686546397e+01  3.3000000000e-01 0. 9.
        2     1     5     0   104     0 -3.7426674142e+00 -2.7834203803e+01 -3.2311951660e+01  4.2812633425e+01  3.3000000000e-01 0. 9.
        3     1     7     0   105     0 -5.2638270368e+01  9.4998557194e+00 -7.4983993967e+01  9.2108002461e+01  5.0000000000e-01 0. 9.
       -4     1     7     0     0   105 -2.6404103638e+00  7.6394132826e+01 -1.2519800068e+02  1.4669636898e+02  1.5000000000e+00 0. 9.
#pdf   21   21  1.832687e-02  5.924088e-02  2.030890e+02  4.973105e+00  1.571586e+00
</event>
<event>
    12  9999  1.000000e+00  2.323198e+02  7.901269e-03  1.038478e-01
       21    -1     0     0   101   102  0.0000000000e+00  0.0000000000e+00  1.6743680312e+02  1.6743680312e+02  0.0000000000e+00 0. 9.
       21    -1     0     0   103   101  0.0000000000e+00  0.0000000000e+00 -3.6506662879e+02  3.6506662879e+02  0.0000000000e+00 0. 9.
        6     2     1     2   103     0 -1.5096062710e+02 -4.3727717733e+01 -7.8654844816e+00  2.3280112774e+02  1.7156128643e+02  2.277674e-13 9.
       -6     2     1     2     0   102  1.5096062710e+02  4.3727717733e+01 -1.8976434119e+02  2.9970230417e+02  1.7061577215e+02  7.941454e-14 9.
       24     2     3     0     0     0 -7.6831009848e+01 -1.8990523864e+01  6.0485107722e+01  1.2886859016e+02  8.1761978954e+01  3.412686e-14 9.
        5     1     3     0   103     0 -7.4129617249e+01 -2.4737193869e+01 -6.8350592203e+01  1.0393253758e+02  4.8000000000e+00 0. 9.
      -24     2     4     0     0     0  1.4351614278e+02 -1.9365790305e+01 -1.1820994077e+02  2.0389372771e+02  8.1407278741e+01  4.612139e-14 9.
       -5     1     4     0     0   102  7.4444843173e+00  6.3093508039e+01 -7.1554400421e+01  9.5808576458e+01  4.8000000000e+00 0. 9.
      -15     1     5     0     0     0 -9.0270468594e+01 -3.0654214161e+01  5.5759480734e+01  1.1045684735e+02  1.7768200000e+00  1.474504e-02 9.
       16     1     5     0     0     0  1.3439458746e+01  1.1663690297e+01  4.7256269878e+00  1.8411742806e+01  0.0000000000e+00 0. 9.
        3     1     7     0   104     0  6.7505511221e+01 -4.9223340561e+01 -7.0385974675e+01  1.0924452724e+02  5.0000000000e-01 0. 9.
       -4     1     7     0     0   104  7.6010631558e+01  2.9857550256e+01 -4.7823966092e+01  9.4649200472e+01  1.5000000000e+00 0. 9.
#pdf   21   21  2.575951e-02  5.616410e-02  2.319719e+02  3.662942e+00  1.653997e+00
</event>
<event>
    12  9999  1.000000e+00  1.801661e+02  7.878322e-03  1.070927e-01
       21    -1     0     0   101   102  0.0000000000e+00  0.0000000000e+00  8.2355729780e+01  8.2355729780e+01  0.0000000000e+00 0. 9.
       21    -1     0     0   102   103  0.0000000000e+00  0.0000000000e+00 -3.9415082514e+02  3.9415082514e+02  0.0000000000e+00 0. 9.
        6     2     1     2   101     0 -4.0200239485e+01  4.2188085443e+01 -1.5700967902e+02  2.3895029459e+02  1.7043858181e+02  3.347773e-14 9.
       -6     2     1     2     0   103  4.0200239485e+01 -4.2188085443e+01 -1.5478541634e+02  2.3755626033e+02  1.7052436161e+02  4.987330e-13 9.
       24     2     3     0     0     0 -4.6968399040e+01 -2.3541265660e+01 -3.8502302188e+01  1.0318139556e+02  8.0023442929e+01  1.209057e-13 9.
        5     1     3     0   101     0  6.7681595547e+00  6.5729351103e+01 -1.1850737684e+02  1.3576889903e+02  4.8000000000e+00 0. 9.
      -24     2     4     0     0     0 -3.7198820757e+01 -1.8769400986e+01 -1.3880456134e+02  1.5498824573e+02  5.4941854618e+01  1.044668e-13 9.
       -5     1     4     0     0   103  7.7399060242e+01 -2.3418684457e+01 -1.5980855002e+01  8.2568014598e+01  4.8000000000e+00 0. 9.
      -13     1     5     0     0     0 -1.3418806762e+01  2.8548895012e+01 -2.7941814616e+00  3.1668950021e+01  1.0566000000e-01  2.127038e+06 9.
       14     1     5     0     0     0 -3.3549592278e+01 -5.2090160672e+01 -3.5708120727e+01  7.1512445537e+01  0.0000000000e+00 0. 9.
        3     1     7     0   104     0  5.1127783804e+00 -5.5086912229e+00 -8.4632196164e+01  8.4966727660e+01  5.0000000000e-01 0. 9.
       -4     1     7     0     0   104 -4.2311599137e+01 -1.3260709763e+01 -5.4172365171e+01  7.0021518073e+01  1.5000000000e+00 0. 9.
#pdf   21   21  1.267011e-02  6.063859e-02  1.801255e+02  6.743371e+00  1.543368e+00
</event>
<event>
    12  9999  1.000000e+00  2.885622e+02  7.920943e-03  1.012341e-01
       21    -1     0     0   101   102  0.0000000000e+00  0.0000000000e+00  7.7663466747e+02  7.7663466747e+02  0.0000000000e+00 0. 9.
       21    -1     0     0   102   103  0.0000000000e+00  0.0000000000e+00 -1.0885571321e+02  1.0885571321e+02  0.0000000000e+00 0. 9.
        6     2     1     2   101     0 -2.0753789544e+02  9.1335270233e+01  3.8257629108e+02  4.7649303612e+02  1.7107567138e+02  6.216978e-14 9.
       -6     2     1     2     0   103  2.0753789544e+02 -9.1335270233e+01  2.8520266318e+02  4.0899734455e+02  1.8580677903e+02  1.149189e-13 9.
       24     2     3     0     0     0 -2.1001187269e+02  1.2005291332e+02  3.4110366661e+02  4.2575998803e+02  8.0013544887e+01  9.907398e-15 9.
        5     1     3     0   101     0  2.4739772490e+00 -2.8717643085e+01  4.1472624475e+01  5.0733048091e+01  4.8000000000e+00 0. 9.
      -24     2     4     0     0     0  1.1656560898e+02 -1.9871195022e+01  5.9293293161e+01  1.5514472115e+02  8.1066542398e+01  7.249942e-14 9.
       -5     1     4     0     0   103  9.0972286461e+01 -7.1464075210e+01  2.2590937002e+02  2.5385262341e+02  4.8000000000e+00 0. 9.
      -15     1     5     0     0     0 -9.6970288523e+01  7.2676338654e+01  1.0771469311e+02  1.6214406945e+02  1.7768200000e+00  2.097416e-02 9.
       16     1     5     0     0     0 -1.1304158417e+02  4.7376574663e+01  2.3338897350e+02  2.6361591858e+02  0.0000000000e+00 0. 9.
       13     1     7     0     0     0  4.0886618631e+01  3.0755716238e+01  3.0894450047e+01  5.9767113634e+01  1.0566000000e-01  1.245683e+06 9.
      -14     1     7     0     0     0  7.5678990352e+01 -5.0626911260e+01  2.8398843114e+01  9.5377607512e+01  0.0000000000e+00 0. 9.
#pdf   21   21  1.194823e-01  1.674703e-02  2.840440e+02  6.091822e-01  5.342410e+00
</event>
<event>
    12  9999  1.000000e+00  1.817127e+02  7.879091e-03  1.069802e-01
       21    -1     0     0   101   102  0.0000000000e+00  0.0000000000e+00  5.5611265327e+01  5.5611265327e+01  0.0000000000e+00 0. 9.
       21    -1     0     0   103   101  0.0000000000e+00  0.0000000000e+00 -7.7450814097e+02  7.7450814097e+02  0.0000000000e+00 0. 9.
        6     2     1     2   103     0  1.0786443270e+01 -5.9871721156e+01 -5.5917153895e+02  5.8779648608e+02  1.7067785073e+02  1.461419e-13 9.
       -6     2     1     2     0   102 -1.0786443270e+01  5.9871721156e+01 -1.5972533669e+02  2.4232292021e+02  1.7177672754e+02  6.302693e-14 9.
       24     2     3     0     0     0  6.8993098421e+01 -5.8652378673e+01 -3.3955438763e+02  3.6054280701e+02  8.0584020579e+01  3.213659e-15 9.
        5     1     3     0   103     0 -5.8206655150e+01 -1.2193424833e+00 -2.1961715132e+02  2.2725367908e+02  4.8000000000e+00 0. 9.
      -24     2     4     0     0     0 -2.3394961372e+01  9.6579149250e+01 -1.5193972143e+02  2.0244729092e+02  8.9578849995e+01  2.953566e-14 9.
       -5     1     4     0     0   102  1.2608518102e+01 -3.6707428094e+01 -7.7856152596e+00  3.9875629287e+01  4.8000000000e+00 0. 9.
       -1     1     5     0     0   104  3.3553211782e+01 -6.5250149276e+01 -2.9065779125e+02  2.9977568367e+02  3.3000000000e-01 0. 9.
        4     1     5     0   104     0  3.5439886639e+01  6.5977706032e+00 -4.8896596374e+01  6.0767123339e+01  1.5000000000e+00 0. 9.
        3     1     7     0   105     0  1.9126988361e+01 -7.3465665434e+00 -1.5268176084e+01  2.5557404498e+01  5.0000000000e-01 0. 9.
       -4     1     7     0     0   105 -4.2521949733e+01  1.0392571579e+02 -1.3667154535e+02  1.7688988643e+02  1.5000000000e+00 0. 9.
#pdf   21   21  8.555579e-03  1.191551e-01  1.811957e+02  9.121119e+00  6.450143e-01
</event>
<event>
    12  9999  1.000000e+00  2.556386e+02  7.909938e-03  1.026780e-01
       21    -1     0     0   101   102  0.0000000000e+00  0.0000000000e+00  4.3622657702e+02  4.3622657702e+02  0.0000000000e+00 0. 9.
       21    -1     0     0   102   103  0.0000000000e+00  0.0000000000e+00 -2.0780954242e+02  2.0780954242e+02  0.0000000000e+00 0. 9.
        6     2     1     2   101     0  1.1703702779e+02 -8.0789021836e+01  2.6773707049e+02  3.4852634563e+02  1.7193877620e+02  1.040729e-12 9.
       -6     2     1     2     0   103 -1.1703702779e+02  8.0789021836e+01 -3.9320035895e+01  2.9550977381e+02  2.5603794499e+02  2.025203e-13 9.
       24     2     3     0     0     0  1.9173063855e+01 -7.3657786398e+01  2.0127278991e+02  2.2991458168e+02  8.0974706134e+01  1.694819e-13 9.
        5     1     3     0   101     0  9.7863963932e+01 -7.1312354375e+00  6.6464280579e+01  1.1861176395e+02  4.8000000000e+00 0. 9.
      -24     2     4     0     0     0 -1.1091273823e+02 -6.0565877167e+01 -3.6658081121e+01  1.5391584598e+02  7.9852437371e+01  9.788489e-15 9.
       -5     1     4     0     0   103 -6.1242895531e+00  1.4135489900e+02 -2.6619547740e+00  1.4159392783e+02  4.8000000000e+00 0. 9.
       -3     1     5     0     0   104  9.5697856243e+00  1.2060346026e+01  7.7677362914e+01  7.9189995912e+01  5.0000000000e-01 0. 9.
        4     1     5     0   104     0  9.6032782306e+00 -8.5718132424e+01  1.2359542700e+02  1.5072458577e+02  1.5000000000e+00 0. 9.
        3     1     7     0   105     0 -8.0236218700e+01 -7.1549053533e+01 -5.0138280895e+01  1.1862215250e+02  5.0000000000e-01 0. 9.
       -4     1     7     0     0   105 -3.0676519534e+01  1.0983176367e+01  1.3480199773e+01  3.5293693484e+01  1.5000000000e+00 0. 9.
#pdf   21   21  6.711178e-02  3.197070e-02  2.231311e+02  1.348136e+00  2.989821e+00
</event>
<event>
    12  9999  1.000000e+00  2.361369e+02  7.902745e-03  1.036466e-01
       21    -1     0     0   101   102  0.0000000000e+00  0.0000000000e+00  4.3044793800e+01  4.3044793800e+01  0.0000000000e+00 0. 9.
       21    -1     0     0   103   101  0.0000000000e+00  0.0000000000e+00 -2.1895255495e+03  2.1895255495e+03  0.0000000000e+00 0. 9.
        6     2     1     2   103     0 -1.0410409861e+02 -1.2562991934e+02 -1.7854125947e+03  1.8009037391e+03  1.7010468565e+02  1.801679e-13 9.
       -6     2     1     2     0   102  1.0410409861e+02  1.2562991934e+02 -3.6106816091e+02  4.3166660415e+02  1.7130470026e+02  6.730879e-14 9.
       24     2     3     0     0     0 -5.2769227442e+01 -9.6738265399e+01 -1.6107810919e+03  1.6165421421e+03  8.0311193533e+01  1.907704e-14 9.
        5     1     3     0   103     0 -5.1334871172e+01 -2.8891653943e+01 -1.7463150286e+02  1.8436159702e+02  4.8000000000e+00 0. 9.
      -24     2     4     0     0     0  1.1764807841e+02  1.3379731582e+02 -3.6576267677e+02  4.1448451368e+02  7.9197754298e+01  9.493981e-14 9.
       -5     1     4     0     0   102 -1.3543979793e+01 -8.1673964794e+00  4.6945158561e+00  1.7182090473e+01  4.8000000000e+00 0. 9.
      -13     1     5     0     0     0 -2.9615507333e+01  5.8434087382e+00 -4.4768519085e+02  4.4870175503e+02  1.0566000000e-01  1.186572e+06 9.
       14     1     5     0     0     0 -2.3153720109e+01 -1.0258167414e+02 -1.1630959010e+03  1.1678403871e+03  0.0000000000e+00 0. 9.
       15     1     7     0     0     0  6.2685481469e+00  5.7495497643e+01 -1.3917559703e+02  1.5072501731e+02  1.7768200000e+00  1.497148e-02 9.
      -16     1     7     0     0     0  1.1137953026e+02  7.6301818179e+01 -2.2658707973e+02  2.6375949636e+02  0.0000000000e+00 0. 9.
#pdf   21   21  6.622276e-03  3.368501e-01  2.357035e+02  1.107855e+01  6.653738e-02
</event>
<event>
    12  9999  1.000000e+00  2.254719e+02  7.898562e-03  1.042193e-01
       21    -1     0     0   101   102  0.0000000000e+00  0.0000000000e+00  2.6279200766e+02  2.6279200766e+02  0.0000000000e+00 0. 9.
       21    -1     0     0   103   101  0.0000000000e+00  0.0000000000e+00 -4.5720901072e+02  4.5720901072e+02  0.0000000000e+00 0. 9.
        6     2     1     2   103     0 -1.0987417322e+02 -9.7109988928e+01 -3.7050021201e+02  4.3332317847e+02  1.7028178413e+02  1.923266e-13 9.
       -6     2     1     2     0   102  1.0987417322e+02  9.7109988928e+01  1.7608320896e+02  2.8667783991e+02  1.7226782500e+02  7.223901e-14 9.
       24     2     3     0     0     0 -5.1411086826e+01 -7.8380149899e+01 -3.4598663087e+02  3.6704576904e+02  7.8925915157e+01  3.955241e-13 9.
        5     1     3     0   103     0 -5.8463086389e+01 -1.8729839029e+01 -2.4513581149e+01  6.6277409432e+01  4.8000000000e+00 0. 9.
      -24     2     4     0     0     0  6.3054463073e+01 -1.7865381465e+01  7.6584607603e+01  1.2750990116e+02  7.8093121362e+01  7.991845e-15 9.
       -5     1     4     0     0   102  4.6819710142e+01  1.1497537039e+02  9.9498601352e+01  1.5916793875e+02  4.8000000000e+00 0. 9.
      -15     1     5     0     0     0 -2.2028743994e+01 -8.8008861410e+01 -2.3770060286e+02  2.5443183554e+02  1.7768200000e+00  4.813466e-02 9.
       16     1     5     0     0     0 -2.9382342832e+01  9.6287115110e+00 -1.0828602801e+02  1.1261393350e+02  0.0000000000e+00 0. 9.
       13     1     7     0     0     0  3.7144423508e+01 -3.3195694885e+01  5.2617557833e+00  5.0093508507e+01  1.0566000000e-01  3.418108e+05 9.
      -14     1     7     0     0     0  2.5910039566e+01  1.5330313419e+01  7.1322851820e+01  7.7416392654e+01  0.0000000000e+00 0. 9.
#pdf   21   21  4.042954e-02  7.033985e-02  2.247189e+02  2.363798e+00  1.273112e+00
</event>
<event>
    12  9999  1.000000e+00  2.034079e+02  7.889257e-03  1.055188e-01
        3    -1     0     0   101     0  0.0000000000e+00  0.0000000000e+00  1.1124193532e+02  1.1124193532e+02  0.0000000000e+00 0. 9.
       -3    -1     0     0     0   102  0.0000000000e+00  0.0000000000e+00 -3.8173092756e+02  3.8173092756e+02  0.0000000000e+00 0. 9.
        6     2     1     2   101     0  9.1557784682e+01  6.2783225937e+01 -1.7457065864e+02  2.6786323859e+02  1.7015063424e+02  2.753198e-13 9.
       -6     2     1     2     0   102 -9.1557784682e+01 -6.2783225937e+01 -9.5918333600e+01  2.2510962430e+02  1.7073211425e+02  2.767505e-13 9.
       24     2     3     0     0     0  2.1003464248e+01 -2.0648114951e+01 -1.1522850164e+02  1.4343160124e+02  8.0171855936e+01  9.273147e-15 9.
        5     1     3     0   101     0  7.0554320434e+01  8.3431340889e+01 -5.9342157000e+01  1.2443163734e+02  4.8000000000e+00 0. 9.
      -24     2     4     0     0     0 -5.4956341928e+01 -9.5312496510e+01 -1.0853564107e+02  1.7431537754e+02  8.0629981735e+01  9.086769e-14 9.
       -5     1     4     0     0   102 -3.6601442755e+01  3.2529270572e+01  1.2617307472e+01  5.0794246756e+01  4.8000000000e+00 0. 9.
       -1     1     5     0     0   103  2.0272263750e+01  7.3663391679e+00 -1.1330449951e+02  1.1533969889e+02  3.3000000000e-01 0. 9.
        2     1     5     0   103     0  7.3120049872e-01 -2.8014454119e+01 -1.9240021268e+00  2.8091902355e+01  3.3000000000e-01 0. 9.
        3     1     7     0   104     0  5.5921140668e+00 -3.2796429729e+01 -7.3134746610e+01  8.0348109526e+01  5.0000000000e-01 0. 9.
       -4     1     7     0     0   104 -6.0548455994e+01 -6.2516066781e+01 -3.5400894462e+01  9.3967268013e+01  1.5000000000e+00 0. 9.
#pdf    3   -3  1.711414e-02  5.872784e-02  2.031645e+02  2.499643e-01  8.357061e-02
</event>
<event>
    12  9999  1.000000e+00  1.961891e+02  7.885997e-03  1.059826e-01
       21    -1     0     0   101   102  0.0000000000e+00  0.0000000000e+00  1.4303851472e+02  1.4303851472e+02  0.0000000000e+00 0. 9.
       21    -1     0     0   102   103  0.0000000000e+00  0.0000000000e+00 -4.1819537152e+02  4.1819537152e+02  0.0000000000e+00 0. 9.
        6     2     1     2   101     0 -8.7347580430e+01  3.7812972237e+01  2.9999843619e+01  1.9843051739e+02  1.7150877220e+02  3.024064e-13 9.
       -6     2     1     2     0   103  8.7347580430e+01 -3.7812972237e+01 -3.0515670042e+02  3.6280336885e+02  1.7159910244e+02  7.051915e-14 9.
       24     2     3     0     0     0 -6.4052954597e+01  9.0739079468e+01  2.7763780357e+01  1.4036286376e+02  8.1206800755e+01  4.021007e-14 9.
        5     1     3     0   101     0 -2.3294625833e+01 -5.2926107231e+01  2.2360632616e+00  5.8067653631e+01  4.8000000000e+00 0. 9.
      -24     2     4     0     0     0  2.5124076731e-01  1.7543199806e+01 -8.6609722688e+01  1.2106818390e+02  8.2755266341e+01  1.010146e-13 9.
       -5     1     4     0     0   103  8.7096339663e+01 -5.5356172044e+01 -2.1854697773e+02  2.4173518495e+02  4.8000000000e+00 0. 9.
       -1     1     5     0     0   104 -6.9046830792e+01  8.7202372594e+01 -7.1618032500e-01  1.1123102284e+02  3.3000000000e-01 0. 9.
        2     1     5     0   104     0  4.9938761947e+00  3.5367068740e+00  2.8479960682e+01  2.9131840921e+01  3.3000000000e-01 0. 9.
        1     1     7     0   105     0 -1.2381956398e+01  2.9752101774e+01 -9.5915179749e+01  1.0118463821e+02  3.3000000000e-01 0. 9.
       -2     1     7     0     0   105  1.2633197166e+01 -1.2208901968e+01  9.3054570610e+00  1.9883545685e+01  3.3000000000e-01 0. 9.
#pdf   21   21  2.200593e-02  6.433775e-02  1.961496e+02  4.244110e+00  1.431889e+00
</event>
<event>
    12  9999  1.000000e+00  2.160087e+02  7.894685e-03  1.047564e-01
       21    -1     0     0   101   102  0.0000000000e+00  0.0000000000e+00  1.8780945366e+02  1.8780945366e+02  0.0000000000e+00 0. 9.
       21    -1     0     0   102   103  0.0000000000e+00  0.0000000000e+00 -3.6563310076e+02  3.6563310076e+02  0.0000000000e+00 0. 9.
        6     2     1     2   101     0 -1.2793903971e+02  3.4403925306e+01  6.7820084348e+01  2.2617033377e+02  1.7029805659e+02  6.930030e-15 9.
       -6     2     1     2     0   103  1.2793903971e+02 -3.4403925306e+01 -2.4564373146e+02  3.2727222065e+02  1.7092172374e+02  3.068567e-14 9.
       24     2     3     0     0     0 -1.3291483797e+02 -1.9886186421e+01  3.4873113484e+01  1.6228983840e+02  8.4024062280e+01  6.271216e-15 9.
        5     1     3     0   101     0  4.9757982554e+00  5.4290111727e+01  3.2946970864e+01  6.3880495370e+01  4.8000000000e+00 0. 9.
      -24     2     4     0     0     0  6.2923203308e+01 -8.1890064138e+00 -2.3494034052e+02  2.5619561737e+02  8.0080218635e+01  3.086702e-13 9.
       -5     1     4     0     0   103  6.5015836402e+01 -2.6214918893e+01 -1.0703390933e+01  7.1076603274e+01  4.8000000000e+00 0. 9.
       -1     1     5     0     0   104 -5.2594213208e+01 -2.3425136222e+01 -2.4268025675e+01  6.2481471175e+01  3.3000000000e-01 0. 9.
        2     1     5     0   104     0 -8.0320624758e+01  3.5389498014e+00  5.9141139159e+01  9.9808367225e+01  3.3000000000e-01 0. 9.
        1     1     7     0   105     0  6.5908657858e+01 -3.0069113778e+01 -1.2874208542e+02  1.4772520517e+02  3.3000000000e-01 0. 9.
       -2     1     7     0     0   105 -2.9854545495e+00  2.1880107364e+01 -1.0619825511e+02  1.0847041221e+02  3.3000000000e-01 0. 9.
#pdf   21   21  2.889376e-02  5.625125e-02  2.157625e+02  3.298736e+00  1.659676e+00
</event>
<event>
    12  9999  1.000000e+00  1.873833e+02  7.881858e-03  1.065780e-01
       21    -1     0     0   101   102  0.0000000000e+00  0.0000000000e+00  6.7390693003e+01  6.7390693003e+01  0.0000000000e+00 0. 9.
       21    -1     0     0   102   103  0.0000000000e+00  0.0000000000e+00 -5.3287210924e+02  5.3287210924e+02  0.0000000000e+00 0. 9.
        6     2     1     2   101     0  6.1912561256e+01  4.5648720154e+01 -2.7804612155e+02  3.3555581175e+02  1.7137994691e+02  1.535271e-15 9.
       -6     2     1     2     0   103 -6.1912561256e+01 -4.5648720154e+01 -1.8743529470e+02  2.6470699049e+02  1.7035501233e+02  1.052073e-13 9.
       24     2     3     0     0     0  3.9516055408e+01  1.7507850377e+01 -2.8392246286e+02  2.9879872518e+02  8.2466173642e+01  2.318037e-14 9.
        5     1     3     0   101     0  2.2396505848e+01  2.8140869777e+01  5.8763413125e+00  3.6757086572e+01  4.8000000000e+00 0. 9.
      -24     2     4     0     0     0  2.1404727630e+01 -2.1891112437e+01 -1.4338432607e+02  1.6739449187e+02  8.0774177659e+01  1.868960e-13 9.
       -5     1     4     0     0   103 -8.3317288885e+01 -2.3757607718e+01 -4.4050968622e+01  9.7312498623e+01  4.8000000000e+00 0. 9.
       -3     1     5     0     0   104 -5.3442466331e-01  4.1682796850e+01 -1.8091308848e+02  1.8565434750e+02  5.0000000000e-01 0. 9.
        4     1     5     0   104     0  4.0050480071e+01 -2.4174946473e+01 -1.0300937438e+02  1.1314437768e+02  1.5000000000e+00 0. 9.
        1     1     7     0   105     0  2.3782231802e+01  1.3689014381e+01 -1.2360651751e+02  1.2661620645e+02  3.3000000000e-01 0. 9.
       -2     1     7     0     0   105 -2.3775041721e+00 -3.5580126818e+01 -1.9777808563e+01  4.0778285422e+01  3.3000000000e-01 0. 9.
#pdf   21   21  1.036780e-02  8.198032e-02  1.869166e+02  7.889771e+00  1.069697e+00
</event>
<event>
    12  9999  1.000000e+00  2.467417e+02  7.906725e-03  1.031081e-01
       21    -1     0     0   101   102  0.0000000000e+00  0.0000000000e+00  2.3768311048e+03  2.3768311048e+03  0.0000000000e+00 0. 9.
       21    -1     0     0   103   101  0.0000000000e+00  0.0000000000e+00 -2.7782570637e+01  2.7782570637e+01  0.0000000000e+00 0. 9.
        6     2     1     2   103     0  1.3215022251e+02  1.1904623521e+02  8.3928037287e+02  8.7483852742e+02  1.7121687226e+02  1.071417e-13 9.
       -6     2     1     2     0   102 -1.3215022251e+02 -1.1904623521e+02  1.5097681613e+03  1.5297751481e+03  1.7081105122e+02  3.074576e-13 9.
       24     2     3     0     0     0  2.0543682196e+01  1.7291034532e+01  4.4125394017e+02  4.4909421232e+02  7.9117312119e+01  2.119176e-14 9.
        5     1     3     0   103     0  1.1160654031e+02  1.0175520068e+02  3.9802643270e+02  4.2574431510e+02  4.8000000000e+00 0. 9.
      -24     2     4     0     0     0 -8.6704858062e+00 -7.6160714719e+01  8.6049125787e+02  8.6745351123e+02  7.8452262438e+01  5.653187e-15 9.
       -5     1     4     0     0   102 -1.2347973670e+02 -4.2885520488e+01  6.4927690346e+02  6.6232163683e+02  4.8000000000e+00 0. 9.
       -3     1     5     0     0   104  4.9477758323e+01  1.5086143261e+01  3.3364708757e+02  3.3763333563e+02  5.0000000000e-01 0. 9.
        4     1     5     0   104     0 -2.8934076127e+01  2.2048912703e+00  1.0760685260e+02  1.1146087669e+02  1.5000000000e+00 0. 9.
        3     1     7     0   105     0 -6.1350951918e+00  7.8479391192e+00  3.4573529032e+02  3.4587912703e+02  5.0000000000e-01 0. 9.
       -4     1     7     0     0   105 -2.5353906144e+00 -8.4008653839e+01  5.1475596755e+02  5.2157438420e+02  1.5000000000e+00 0. 9.
#pdf   21   21  3.656663e-01  4.274242e-03  2.466011e+02  4.796494e-02  1.513651e+01
</event>
<event>
    12  9999  1.000000e+00  1.928103e+02  7.884431e-03  1.062070e-01
       21    -1     0     0   101   102  0.0000000000e+00  0.0000000000e+00  2.7642957586e+01  2.7642957586e+01  0.0000000000e+00 0. 9.
       21    -1     0     0   102   103  0.0000000000e+00  0.0000000000e+00 -1.5796030842e+03  1.5796030842e+03  0.0000000000e+00 0. 9.
        6     2     1     2   101     0  6.4261595150e+01 -5.6026885120e+01 -4.5960806185e+02  4.9766590061e+02  1.7077240305e+02  8.587744e-14 9.
       -6     2     1     2     0   103 -6.4261595150e+01  5.6026885120e+01 -1.0923520647e+03  1.1095801412e+03  1.7511850797e+02  5.236800e-13 9.
       24     2     3     0     0     0  1.0718830860e+02 -5.1593596228e+01 -3.9600338329e+02  4.2065322689e+02  7.7325448884e+01  1.989653e-13 9.
        5     1     3     0   101     0 -4.2926713451e+01 -4.4332888920e+00 -6.3604678559e+01  7.7012673715e+01  4.8000000000e+00 0. 9.
      -24     2     4     0     0     0 -8.3942108546e+01  2.8849052540e+01 -1.0425031059e+03  1.0492981713e+03  7.9595107140e+01  2.626853e-13 9.
       -5     1     4     0     0   103  1.9680513396e+01  2.7177832580e+01 -4.9848958858e+01  6.0281969863e+01  4.8000000000e+00 0. 9.
      -11     1     5     0     0     0  5.1299527770e+01 -6.1705597685e+01 -1.7588588045e+02  1.9332631812e+02  5.1100000000e-04 0. 9.
       12     1     5     0     0     0  5.5888780831e+01  1.0112001457e+01 -2.2011750284e+02  2.2732690878e+02  0.0000000000e+00 0. 9.
        3     1     7     0   104     0 -1.9296508902e+00  3.5804882155e+01 -2.5617750554e+02  2.5867523554e+02  5.0000000000e-01 0. 9.
       -4     1     7     0     0   104 -8.2012457656e+01 -6.9558296159e+00 -7.8632560035e+02  7.9062293576e+02  1.5000000000e+00 0. 9.
#pdf   21   21  4.252763e-03  2.430159e-01  1.908711e+02  1.502944e+01  1.780174e-01
</event>
<event>
    12  9999  1.000000e+00  1.845582e+02  7.880490e-03  1.067765e-01
       21    -1     0     0   101   102  0.0000000000e+00  0.0000000000e+00  1.6286802875e+02  1.6286802875e+02  0.0000000000e+00 0. 9.
       21    -1     0     0   103   101  0.0000000000e+00  0.0000000000e+00 -2.6734372236e+02  2.6734372236e+02  0.0000000000e+00 0. 9.
        6     2     1     2   103     0  5.3896847877e+01  4.5384230750e+01 -1.5233869843e+02  2.3840697663e+02  1.6931098267e+02  4.339610e-15 9.
       -6     2     1     2     0   102 -5.3896847877e+01 -4.5384230750e+01  4.7863004823e+01  1.9180477448e+02  1.7185344241e+02  5.100947e-14 9.
       24     2     3     0     0     0  8.2015603428e+01 -8.5082634899e+00 -1.2940066245e+02  1.7325900012e+02  8.0468626959e+01  5.547586e-14 9.
        5     1     3     0   103     0 -2.8118755551e+01  5.3892494240e+01 -2.2938035977e+01  6.5147976512e+01  4.8000000000e+00 0. 9.
      -24     2     4     0     0     0 -1.2070942373e+01 -9.1825654173e+01  3.9590211380e+01  1.2857747585e+02  7.9919484758e+01  2.576053e-14 9.
       -5     1     4     0     0   102 -4.1825905504e+01  4.6441423423e+01  8.2727934431e+00  6.3227298631e+01  4.8000000000e+00 0. 9.
       -3     1     5     0     0   104  5.4261167305e+01  2.9316174856e+01 -4.3843585803e+01  7.5671807178e+01  5.0000000000e-01 0. 9.
        4     1     5     0   104     0  2.7754436123e+01 -3.7824438346e+01 -8.5557076651e+01  9.7587192939e+01  1.5000000000e+00 0. 9.
        1     1     7     0   105     0 -1.8485076468e+01 -5.0807026587e+01  6.1291087244e+01  8.1729788194e+01  3.3000000000e-01 0. 9.
       -2     1     7     0     0   105  6.4141340957e+00 -4.1018627586e+01 -2.1700875863e+01  4.6847687653e+01  3.3000000000e-01 0. 9.
#pdf   21   21  2.505662e-02  4.112980e-02  1.833870e+02  3.784034e+00  2.347602e+00
</event>
<event>
    12  9999  1.000000e+00  2.013536e+02  7.888341e-03  1.056487e-01
       21    -1     0     0   101   102  0.0000000000e+00  0.0000000000e+00  8.7432528701e+01  8.7432528701e+01  0.0000000000e+00 0. 9.
       21    -1     0     0   102   103  0.0000000000e+00  0.0000000000e+00 -4.9317551226e+02  4.9317551226e+02  0.0000000000e+00 0. 9.
        6     2     1     2   101     0 -8.8070764307e+01  5.0768087926e+01 -1.2929420604e+02  2.3688114279e+02  1.7047529386e+02  1.250744e-13 9.
       -6     2     1     2     0   103  8.8070764307e+01 -5.0768087926e+01 -2.7644877752e+02  3.4372689817e+02  1.7717334917e+02  2.844581e-13 9.
       24     2     3     0     0     0 -4.8650874144e+01  2.1650411888e+01 -1.5398521165e+02  1.8179527748e+02  8.0637643915e+01  4.144870e-14 9.
        5     1     3     0   101     0 -3.9419890163e+01  2.9117676038e+01  2.4691005616e+01  5.5085865308e+01  4.8000000000e+00 0. 9.
      -24     2     4     0     0     0  2.1221446406e+01  2.0222710284e+01 -1.7273437514e+02  2.0129009817e+02  9.9102126445e+01  2.672091e-14 9.
       -5     1     4     0     0   103  6.6849317901e+01 -7.0990798210e+01 -1.0371440238e+02  1.4243680000e+02  4.8000000000e+00 0. 9.
      -11     1     5     0     0     0  1.7534835330e+01 -1.2188785643e+01 -2.4593566614e+01  3.2571160012e+01  5.1100000000e-04 0. 9.
       12     1     5     0     0     0 -6.6185709474e+01  3.3839197530e+01 -1.2939164504e+02  1.4922411747e+02  0.0000000000e+00 0. 9.
       11     1     7     0     0     0  3.7701806533e+01 -1.5382803449e+01 -1.5109088222e+02  1.5648166521e+02  5.1100000000e-04 0. 9.
      -12     1     7     0     0     0 -1.6480360126e+01  3.5605513733e+01 -2.1643492926e+01  4.4808432958e+01  0.0000000000e+00 0. 9.
#pdf   21   21  1.345116e-02  7.587316e-02  1.984835e+02  6.429464e+00  1.172525e+00
</event>
<event>
    12  9999  1.000000e+00  1.784763e+02  7.877474e-03  1.072169e-01
       21    -1     0     0   101   102  0.0000000000e+00  0.0000000000e+00  1.4647283814e+01  1.4647283814e+01  0.0000000000e+00 0. 9.
       21    -1     0     0   102   103  0.0000000000e+00  0.0000000000e+00 -2.1771676048e+03  2.1771676048e+03  0.0000000000e+00 0. 9.
        6     2     1     2   101     0  5.2135379694e+01 -1.3960899012e+01 -1.1171826564e+03  1.1313287941e+03  1.6998455227e+02  2.671620e-13 9.
       -6     2     1     2     0   103 -5.2135379694e+01  1.3960899012e+01 -1.0453376646e+03  1.0604860945e+03  1.7025545279e+02  9.280491e-14 9.
       24     2     3     0     0     0  3.6349030143e+01  5.0818675899e+01 -8.4627126392e+02  8.5229183463e+02  7.9514334723e+01  1.522011e-13 9.
        5     1     3     0   101     0  1.5786349551e+01 -6.4779574911e+01 -2.7091139247e+02  2.7903695943e+02  4.8000000000e+00 0. 9.
      -24     2     4     0     0     0 -8.4844430716e+01  4.2238290957e+01 -5.8209550805e+02  5.9520571831e+02  8.0324441946e+01  6.225642e-14 9.
       -5     1     4     0     0   103  3.2709051022e+01 -2.8277391945e+01 -4.6324215653e+02  4.6528037622e+02  4.8000000000e+00 0. 9.
       -3     1     5     0     0   104  1.3890493196e+01  2.7835946090e+01 -8.7996055954e+01  9.3334567870e+01  5.0000000000e-01 0. 9.
        4     1     5     0   104     0  2.2458536948e+01  2.2982729809e+01 -7.5827520797e+02  7.5895726676e+02  1.5000000000e+00 0. 9.
        3     1     7     0   105     0 -2.3286661183e+01  4.8436645899e+01 -1.6471082442e+02  1.7325785101e+02  5.0000000000e-01 0. 9.
       -4     1     7     0     0   105 -6.1557769533e+01 -6.1983549417e+00 -4.1738468363e+02  4.2194786730e+02  1.5000000000e+00 0. 9.
#pdf   21   21  2.253428e-03  3.349489e-01  1.783473e+02  2.270589e+01  7.332106e-02
</event>
<event>
    12  9999  1.000000e+00  2.009622e+02  7.888165e-03  1.056736e-01
       21    -1     0     0   101   102  0.0000000000e+00  0.0000000000e+00  1.2328305480e+02  1.2328305480e+02  0.0000000000e+00 0. 9.
       21    -1     0     0   103   101  0.0000000000e+00  0.0000000000e+00 -1.2195272475e+03  1.2195272475e+03  0.0000000000e+00 0. 9.
        6     2     1     2   103     0  9.2718426318e+01 -4.5325295992e+01 -1.1212078446e+03  1.1388134316e+03  1.7069830775e+02  7.903068e-14 9.
       -6     2     1     2     0   102 -9.2718426318e+01  4.5325295992e+01  2.4963651868e+01  2.0399687069e+02  1.7418510356e+02  6.567966e-15 9.
       24     2     3     0     0     0  5.6011482461e+01  6.9316110843e+00 -9.6807783421e+02  9.7283143217e+02  7.7723670433e+01  1.112325e-14 9.
        5     1     3     0   103     0  3.6706943858e+01 -5.2256907076e+01 -1.5313001036e+02  1.6598199944e+02  4.8000000000e+00 0. 9.
      -24     2     4     0     0     0 -6.8499758542e+01 -3.9595369480e+01  9.6631591159e+00  1.1424605804e+02  8.1846044068e+01  9.068498e-15 9.
       -5     1     4     0     0   102 -2.4218667776e+01  8.4920665472e+01  1.5300492752e+01  8.9750812651e+01  4.8000000000e+00 0. 9.
      -11     1     5     0     0     0 -1.6706432161e+01 -6.0821818147e+00 -3.3247355023e+02  3.3294858374e+02  5.1100000000e-04 0. 9.
       12     1     5     0     0     0  7.2717914622e+01  1.3013792899e+01 -6.3560428398e+02  6.3988284844e+02  0.0000000000e+00 0. 9.
        1     1     7     0   104     0 -7.1327315967e+01 -3.7062101678e+01  3.5684608254e+01  8.7947061065e+01  3.3000000000e-01 0. 9.
       -2     1     7     0     0   104  2.8275574248e+00 -2.5332678028e+00 -2.6021449138e+01  2.6298996977e+01  3.3000000000e-01 0. 9.
#pdf   21   21  1.896662e-02  1.876196e-01  1.994718e+02  4.830421e+00  3.017080e-01
</event>
<event>
    12  9999  1.000000e+00  1.768252e+02  7.876638e-03  1.073397e-01
       21    -1     0     0   101   102  0.0000000000e+00  0.0000000000e+00  6.1723368607e+01  6.1723368607e+01  0.0000000000e+00 0. 9.
       21    -1     0     0   102   103  0.0000000000e+00  0.0000000000e+00 -6.3560861668e+02  6.3560861668e+02  0.0000000000e+00 0. 9.
        6     2     1     2   101     0  3.9445641337e+01  3.1950643145e+01 -4.4647711046e+02  4.8093034707e+02  1.7139249210e+02  1.908725e-13 9.
       -6     2     1     2     0   103 -3.9445641337e+01 -3.1950643145e+01 -1.2740813761e+02  2.1640163821e+02  1.6739185546e+02  5.397401e-14 9.
       24     2     3     0     0     0 -3.3498433913e+01  5.3311456794e+01 -2.5550726484e+02  2.7533451926e+02  8.0999250690e+01  1.109474e-13 9.
        5     1     3     0   101     0  7.2944075250e+01 -2.1360813649e+01 -1.9096984563e+02  2.0559582781e+02  4.8000000000e+00 0. 9.
      -24     2     4     0     0     0 -5.1062772252e+00  2.2344992417e+01 -1.2681840223e+02  1.5197652078e+02  8.0551740961e+01  1.357089e-13 9.
       -5     1     4     0     0   103 -3.4339364112e+01 -5.4295635561e+01 -5.8973538071e-01  6.4425117434e+01  4.8000000000e+00 0. 9.
       -3     1     5     0     0   104 -2.3254529804e+01  3.0913947212e+01 -3.1271807682e+01  4.9745565071e+01  5.0000000000e-01 0. 9.
        4     1     5     0   104     0 -1.0243904109e+01  2.2397509583e+01 -2.2423545716e+02  2.2558895419e+02  1.5000000000e+00 0. 9.
       13     1     7     0     0     0  7.4137282621e+00 -1.8618682768e+01 -2.1511565543e+00  2.0155826784e+01  1.0566000000e-01  2.238317e+05 9.
      -14     1     7     0     0     0 -1.2520005487e+01  4.0963675185e+01 -1.2466724567e+02  1.3182069400e+02  0.0000000000e+00 0. 9.
#pdf   21   21  9.495903e-03  9.778594e-02  1.749195e+02  8.427944e+00  8.547086e-01
</event>
<event>
    12  9999  1.000000e+00  2.125396e+02  7.893222e-03  1.049606e-01
       21    -1     0     0   101   102  0.0000000000e+00  0.0000000000e+00  1.0560825355e+02  1.0560825355e+02  0.0000000000e+00 0. 9.
       21    -1     0     0   103   101  0.0000000000e+00  0.0000000000e+00 -1.0472631527e+03  1.0472631527e+03  0.0000000000e+00 0. 9.
        6     2     1     2   103     0  9.8809246296e+01 -8.0356401098e+01 -9.1389266201e+02  9.3820970908e+02  1.6975642019e+02  2.398224e-13 9.
       -6     2     1     2     0   102 -9.8809246296e+01  8.0356401098e+01 -2.7762237141e+01  2.1466169717e+02  1.7055346397e+02  4.589357e-13 9.
       24     2     3     0     0     0  8.6922313609e+01 -5.6819585950e+01 -3.4688843831e+02  3.7057240365e+02  7.8793170762e+01  9.657775e-14 9.
        5     1     3     0   103     0  1.1886932687e+01 -2.3536815148e+01 -5.6700422369e+02  5.6763730544e+02  4.8000000000e+00 0. 9.
      -24     2     4     0     0     0 -8.7413307025e+01 -7.7311274216e+00  9.5333627061e+00  1.1820817531e+02  7.8622077868e+01  1.503772e-15 9.
       -5     1     4     0     0   102 -1.1395939271e+01  8.8087528519e+01 -3.7295599847e+01  9.6453521867e+01  4.8000000000e+00 0. 9.
       -1     1     5     0     0   104 -1.4939867270e+01 -9.7562937641e+00 -3.9527452322e+01  4.3369497220e+01  3.3000000000e-01 0. 9.
        2     1     5     0   104     0  1.0186218088e+02 -4.7063292186e+01 -3.0736098599e+02  3.2720290643e+02  3.3000000000e-01 0. 9.
        1     1     7     0   105     0 -1.2004868015e+01  1.9287731753e+00  3.5771171729e+01  3.7782570703e+01  3.3000000000e-01 0. 9.
       -2     1     7     0     0   105 -7.5408439009e+01 -9.6599005969e+00 -2.6237809023e+01  8.0425604603e+01  3.3000000000e-01 0. 9.
#pdf   21   21  1.624742e-02  1.611174e-01  2.122208e+02  5.502762e+00  3.923908e-01
</event>
<event>
    12  9999  1.000000e+00  1.882507e+02  7.882274e-03  1.065178e-01
       21    -1     0     0   101   102  0.0000000000e+00  0.0000000000e+00  1.1785184213e+03  1.1785184213e+03  0.0000000000e+00 0. 9.
       21    -1     0     0   103   101  0.0000000000e+00  0.0000000000e+00 -3.0714710447e+01  3.0714710447e+01  0.0000000000e+00 0. 9.
        6     2     1     2   103     0  6.1714405173e+01  4.9081562310e+01  4.8619497589e+02  5.2135206798e+02  1.7089399241e+02  1.268741e-13 9.
       -6     2     1     2     0   102 -6.1714405173e+01 -4.9081562310e+01  6.6160873494e+02  6.8788106374e+02  1.7098705256e+02  2.760777e-14 9.
       24     2     3     0     0     0 -2.6397058608e+01  3.4952950490e+00  1.2452572963e+02  1.4629284398e+02  7.2013311766e+01  1.700970e-14 9.
        5     1     3     0   103     0  8.8111463780e+01  4.5586267261e+01  3.6166924626e+02  3.7505922399e+02  4.8000000000e+00 0. 9.
      -24     2     4     0     0     0 -3.9357483616e+01 -6.5343179056e+01  2.2776778011e+02  2.5313368169e+02  7.9873378420e+01  2.463290e-13 9.
       -5     1     4     0     0   102 -2.2356921557e+01  1.6261616746e+01  4.3384095482e+02  4.3474738205e+02  4.8000000000e+00 0. 9.
      -13     1     5     0     0     0 -2.5653286705e+01 -1.8342445224e+01  1.1987382436e+02  1.2395273836e+02  1.0566000000e-01  3.289592e+06 9.
       14     1     5     0     0     0 -7.4377190237e-01  2.1837740273e+01  4.6519052677e+00  2.2340105629e+01  0.0000000000e+00 0. 9.
        1     1     7     0   104     0  1.1070316639e+01 -1.8453993091e+00  1.0749603028e+02  1.0808081622e+02  3.3000000000e-01 0. 9.
       -2     1     7     0     0   104 -5.0427800255e+01 -6.3497779747e+01  1.2027174983e+02  1.4505286546e+02  3.3000000000e-01 0. 9.
#pdf   21   21  1.813105e-01  4.725340e-03  1.882085e+02  3.244706e-01  1.397306e+01
</event>
<event>
    12  9999  1.000000e+00  1.908033e+02  7.883488e-03  1.063427e-01
       21    -1     0     0   101   102  0.0000000000e+00  0.0000000000e+00  1.9720381271e+02  1.9720381271e+02  0.0000000000e+00 0. 9.
       21    -1     0     0   103   101  0.0000000000e+00  0.0000000000e+00 -1.9168755864e+02  1.9168755864e+02  0.0000000000e+00 0. 9.
        6     2     1     2   103     0 -7.0807697365e+00  8.3372037041e+01 -3.4591267379e+01  1.9447167965e+02  1.7210939703e+02  1.191938e-13 9.
       -6     2     1     2     0   102  7.0807697365e+00 -8.3372037041e+01  4.0107521452e+01  1.9441969170e+02  1.7084896659e+02  1.776151e-13 9.
       24     2     3     0     0     0 -3.9211135532e+00  1.2291828612e+02 -3.1517520170e+01  1.5439204435e+02  8.7859371070e+01  3.474904e-14 9.
        5     1     3     0   103     0 -3.1596561834e+00 -3.9546249084e+01 -3.0737472093e+00  4.0079635299e+01  4.8000000000e+00 0. 9.
      -24     2     4     0     0     0  5.6086956593e+01 -9.9222209598e+01  2.4897669890e+01  1.4050110581e+02  7.8293506688e+01  5.321058e-14 9.
       -5     1     4     0     0   102 -4.9006186857e+01  1.5850172557e+01  1.5209851562e+01  5.3918585895e+01  4.8000000000e+00 0. 9.
      -13     1     5     0     0     0  2.7275673388e+01  1.0610262118e+02 -4.2165498096e+01  1.1738683476e+02  1.0566000000e-01  1.651728e+05 9.
       14     1     5     0     0     0 -3.1196786941e+01  1.6815664941e+01  1.0647977927e+01  3.7005209589e+01  0.0000000000e+00 0. 9.
        3     1     7     0   104     0  3.7522733184e+01 -1.5101371744e+00 -1.5012155271e+00  3.7586429305e+01  5.0000000000e-01 0. 9.
       -4     1     7     0     0   104  1.8564223410e+01 -9.7712072424e+01  2.6398885417e+01  1.0291467650e+02  1.5000000000e+00 0. 9.
#pdf   21   21  3.033905e-02  2.949039e-02  1.902378e+02  3.164483e+00  3.250723e+00
</event>
<event>
    12  9999  1.000000e+00  2.337110e+02  7.901810e-03  1.037740e-01
       21    -1     0     0   101   102  0.0000000000e+00  0.0000000000e+00  8.2376182444e+01  8.2376182444e+01  0.0000000000e+00 0. 9.
       21    -1     0     0   102   103  0.0000000000e+00  0.0000000000e+00 -6.6310774795e+02  6.6310774795e+02  0.0000000000e+00 0. 9.
        6     2     1     2   101     0  1.5830995880e+02  1.9210615970e+01 -2.8819147114e+02  3.7138138115e+02  1.7157714127e+02  3.801359e-14 9.
       -6     2     1     2     0   103 -1.5830995880e+02 -1.9210615970e+01 -2.9254009437e+02  3.7410254925e+02  1.7012324861e+02  3.910878e-13 9.
       24     2     3     0     0     0  1.1528362349e+02  7.3777752978e+01 -1.8855942534e+02  2.4981484579e+02  9.0107322726e+01  8.054024e-14 9.
        5     1     3     0   101     0  4.3026335309e+01 -5.4567137008e+01 -9.9632045793e+01  1.2156653536e+02  4.8000000000e+00 0. 9.
      -24     2     4     0     0     0 -1.3808022058e+02 -7.0890601093e+01 -1.9769445318e+02  2.6410800928e+02  8.1106837616e+01  2.496523e-15 9.
       -5     1     4     0     0   103 -2.0229738223e+01  5.1679985122e+01 -9.4845641188e+01  1.0999453997e+02  4.8000000000e+00 0. 9.
       -3     1     5     0     0   104  6.4918898093e+01  8.9578628988e+01 -1.1898388880e+02  1.6246910443e+02  5.0000000000e-01 0. 9.
        4     1     5     0   104     0  5.0364725398e+01 -1.5800876010e+01 -6.9575536541e+01  8.7345741351e+01  1.5000000000e+00 0. 9.
        3     1     7     0   105     0 -4.8999529895e+01  1.2871351670e+00 -1.0775599974e+02  1.1838165452e+02  5.0000000000e-01 0. 9.
       -4     1     7     0     0   105 -8.9080690682e+01 -7.2177736260e+01 -8.9938453446e+01  1.4572635476e+02  1.5000000000e+00 0. 9.
#pdf   21   21  1.267326e-02  1.020166e-01  2.331802e+02  6.742497e+00  7.825857e-01
</event>
<event>
    12  9999  1.000000e+00  1.728243e+02  7.874579e-03  1.076433e-01
       21    -1     0     0   101   102  0.0000000000e+00  0.0000000000e+00  1.4777288867e+02  1.4777288867e+02  0.0000000000e+00 0. 9.
       21    -1     0     0   103   101  0.0000000000e+00  0.0000000000e+00 -2.0377507124e+02  2.0377507124e+02  0.0000000000e+00 0. 9.
        6     2     1     2   103     0  1.2296368530e+01  1.7942734287e+01 -1.2233897952e+01  1.7361605971e+02  1.7181305404e+02  1.762065e-13 9.
       -6     2     1     2     0   102 -1.2296368530e+01 -1.7942734287e+01 -4.3768284613e+01  1.7793190020e+02  1.7108756816e+02  2.156414e-13 9.
       24     2     3     0     0     0  3.9635789838e+01  4.7778545615e+01  3.7463117405e+01  1.0934745983e+02  8.1851063214e+01  1.863291e-14 9.
        5     1     3     0   103     0 -2.7339421308e+01 -2.9835811329e+01 -4.9697015357e+01  6.4268599880e+01  4.8000000000e+00 0. 9.
      -24     2     4     0     0     0  3.9691824365e+01  9.5516109144e+00  1.7940731633e+01  9.2551844538e+01  8.1100554150e+01  1.512272e-13 9.
       -5     1     4     0     0   102 -5.1988192895e+01 -2.7494345201e+01 -6.1709016245e+01  8.5380055660e+01  4.8000000000e+00 0. 9.
      -13     1     5     0     0     0  3.7148023512e+01  2.1223862653e+01 -1.9068114890e+01  4.6840497076e+01  1.0566000000e-01  1.882157e+06 9.
       14     1     5     0     0     0  2.4877663259e+00  2.6554682962e+01  5.6531232295e+01  6.2506962759e+01  0.0000000000e+00 0. 9.
        3     1     7     0   104     0  1.2235746548e+01  2.1522807909e+00  4.8919156817e+01  5.0474545168e+01  5.0000000000e-01 0. 9.
       -4     1     7     0     0   104  2.7456077816e+01  7.3993301236e+00 -3.0978425185e+01  4.2077299370e+01  1.5000000000e+00 0. 9.
#pdf   21   21  2.273429e-02  3.135001e-02  1.724648e+02  4.134435e+00  3.077863e+00
</event>
<event>
    12  9999  1.000000e+00  2.115460e+02  7.892799e-03  1.050199e-01
       21    -1     0     0   101   102  0.0000000000e+00  0.0000000000e+00  4.6747042971e+01  4.6747042971e+01  0.0000000000e+00 0. 9.
       21    -1     0     0   102   103  0.0000000000e+00  0.0000000000e+00 -1.6118326705e+03  1.6118326705e+03  0.0000000000e+00 0. 9.
        6     2     1     2   101     0 -1.7812696303e+01 -1.2339834648e+02 -2.5467291527e+02  3.3124359285e+02  1.7122961183e+02  1.253221e-13 9.
       -6     2     1     2     0   103  1.7812696303e+01  1.2339834648e+02 -1.3104127123e+03  1.3273361207e+03  1.7057331736e+02  1.163030e-13 9.
       24     2     3     0     0     0  1.9434067727e+00 -6.0822279481e+01 -2.4518314035e+02  2.6476680293e+02  7.9268916427e+01  6.983085e-14 9.
        5     1     3     0   101     0 -1.9756103076e+01 -6.2576067002e+01 -9.4897749240e+00  6.6476789922e+01  4.8000000000e+00 0. 9.
      -24     2     4     0     0     0 -2.1667324103e+01  9.8033311013e+01 -1.2067634205e+03  1.2134577964e+03  7.8242365157e+01  3.691436e-14 9.
       -5     1     4     0     0   103  3.9480020406e+01  2.5365035470e+01 -1.0364929183e+02  1.1387832425e+02  4.8000000000e+00 0. 9.
      -15     1     5     0     0     0  1.3917932975e+01 -5.7935276347e+01 -2.4530978954e+02  2.5244851957e+02  1.7768200000e+00  5.077521e-02 9.
       16     1     5     0     0     0 -1.1974526203e+01 -2.8870031335e+00  1.2664918502e-01  1.2318283358e+01  0.0000000000e+00 0. 9.
        1     1     7     0   104     0 -1.3235924848e+01  9.5559024667e+01 -6.9982300185e+02  7.0644112262e+02  3.3000000000e-01 0. 9.
       -2     1     7     0     0   104 -8.4313992550e+00  2.4742863460e+00 -5.0694041861e+02  5.0701667380e+02  3.3000000000e-01 0. 9.
#pdf   21   21  7.191853e-03  2.479743e-01  2.112811e+02  1.040470e+01  1.662061e-01
</event>
<event>
    12  9999  1.000000e+00  2.185672e+02  7.895749e-03  1.046083e-01
       21    -1     0     0   101   102  0.0000000000e+00  0.0000000000e+00  1.0022443010e+02  1.0022443010e+02  0.0000000000e+00 0. 9.
       21    -1     0     0   103   101  0.0000000000e+00  0.0000000000e+00 -5.7516450756e+02  5.7516450756e+02  0.0000000000e+00 0. 9.
        6     2     1     2   103     0 -7.4230414906e+01 -1.1268303448e+02 -3.7776927431e+02  4.3674341259e+02  1.7270658085e+02  2.631914e-13 9.
       -6     2     1     2     0   102  7.4230414906e+01  1.1268303448e+02 -9.7170803154e+01  2.3864552507e+02  1.7117798016e+02  1.394274e-13 9.
       24     2     3     0     0     0 -1.7506312629e+00 -1.2483919867e+02 -2.3939767469e+02  2.7999255631e+02  7.4139697229e+01  1.172875e-13 9.
        5     1     3     0   103     0 -7.2479783643e+01  1.2156164184e+01 -1.3837159962e+02  1.5675085628e+02  4.8000000000e+00 0. 9.
      -24     2     4     0     0     0  9.6938798150e+01  1.3570038401e+02 -7.8834242989e+01  2.0116568398e+02  8.0256275373e+01  7.641779e-16 9.
       -5     1     4     0     0   102 -2.2708383245e+01 -2.3017349532e+01 -1.8336560165e+01  3.7479841085e+01  4.8000000000e+00 0. 9.
      -13     1     5     0     0     0 -3.7377808159e+00 -2.1628473015e+01 -3.1476604820e+00  2.2173876092e+01  1.0566000000e-01  3.375170e+05 9.
       14     1     5     0     0     0  1.9871495530e+00 -1.0321072565e+02 -2.3625001421e+02  2.5781868021e+02  0.0000000000e+00 0. 9.
        3     1     7     0   104     0  2.5178460012e+01  6.7120530812e+01  4.1039008903e+00  7.1806772018e+01  5.0000000000e-01 0. 9.
       -4     1     7     0     0   104  7.1760338139e+01  6.8579853201e+01 -8.2938143879e+01  1.2935891197e+02  1.5000000000e+00 0. 9.
#pdf   21   21  1.541914e-02  8.848685e-02  2.179668e+02  5.746385e+00  9.552612e-01
</event>
<event>
    12  9999  1.000000e+00  2.580914e+02  7.910804e-03  1.025627e-01
       21    -1     0     0   101   102  0.0000000000e+00  0.0000000000e+00  1.7618137527e+02  1.7618137527e+02  0.0000000000e+00 0. 9.
       21    -1     0     0   102   103  0.0000000000e+00  0.0000000000e+00 -7.6578500549e+02  7.6578500549e+02  0.0000000000e+00 0. 9.
        6     2     1     2   101     0 -1.9345686976e+02  2.2722804264e+01  3.9983832051e+01  2.6175540758e+02  1.7022132734e+02  9.261717e-14 9.
       -6     2     1     2     0   103  1.9345686976e+02 -2.2722804264e+01 -6.2958746228e+02  6.8021097318e+02  1.6841825638e+02  2.044750e-13 9.
       24     2     3     0     0     0 -8.7818309679e+01 -4.6263391833e+01 -3.4315502139e+00  1.2823935595e+02  8.1124595146e+01  4.703960e-14 9.
        5     1     3     0   101     0 -1.0563856008e+02  6.8986196098e+01  4.3415382265e+01  1.3351605164e+02  4.8000000000e+00 0. 9.
      -24     2     4     0     0     0  3.9110179104e+01 -3.5436513730e+01 -1.7427619082e+02  1.9925782240e+02  8.0908197894e+01  8.518038e-14 9.
       -5     1     4     0     0   103  1.5434669066e+02  1.2713709466e+01 -4.5531127146e+02  4.8095315078e+02  4.8000000000e+00 0. 9.
       -3     1     5     0     0   104 -3.3343471228e+01 -6.1399419748e+01 -1.2435253093e+01  7.0968734936e+01  5.0000000000e-01 0. 9.
        4     1     5     0   104     0 -5.4474838451e+01  1.5136027914e+01  9.0037028794e+00  5.7270621010e+01  1.5000000000e+00 0. 9.
        1     1     7     0   105     0  8.1272614084e+00  2.2580067312e+01 -1.8949201145e+01  3.0579289427e+01  3.3000000000e-01 0. 9.
       -2     1     7     0     0   105  3.0982917695e+01 -5.8016581043e+01 -1.5532698967e+02  1.6867853297e+02  3.3000000000e-01 0. 9.
#pdf   21   21  2.710483e-02  1.178131e-01  2.575007e+02  3.481009e+00  6.292691e-01
</event>
<event>
    12  9999  1.000000e+00  1.775230e+02  7.876992e-03  1.072876e-01
       21    -1     0     0   101   102  0.0000000000e+00  0.0000000000e+00  2.0047154568e+02  2.0047154568e+02  0.0000000000e+00 0. 9.
       21    -1     0     0   102   103  0.0000000000e+00  0.0000000000e+00 -4.6755403427e+02  4.6755403427e+02  0.0000000000e+00 0. 9.
        6     2     1     2   101     0  1.9693893687e+01 -5.0612484977e+01  1.3838890169e+02  2.2570606885e+02  1.6983011606e+02  3.338727e-13 9.
       -6     2     1     2     0   103 -1.9693893687e+01  5.0612484977e+01 -4.0547139028e+02  4.4231951110e+02  1.6819639853e+02  1.993484e-13 9.
       24     2     3     0     0     0 -4.8579218122e+01 -4.0410479739e+01  4.8696825590e+01  1.1242320509e+02  7.9212681516e+01  8.949137e-15 9.
        5     1     3     0   101     0  6.8273111809e+01 -1.0202005238e+01  8.9692076099e+01  1.1328286376e+02  4.8000000000e+00 0. 9.
      -24     2     4     0     0     0 -1.2615039490e+01 -3.6200255256e+01 -2.0013349736e+02  2.1922031273e+02  8.0836446270e+01  1.514310e-13 9.
       -5     1     4     0     0   103 -7.0788541973e+00  8.6812740233e+01 -2.0533789292e+02  2.2309919837e+02  4.8000000000e+00 0. 9.
      -11     1     5     0     0     0 -3.3888231853e+00 -5.1502439022e+00 -2.1171874168e+01  2.2051244657e+01  5.1100000000e-04 0. 9.
       12     1     5     0     0     0 -4.5190394937e+01 -3.5260235837e+01  6.9868699758e+01  9.0371960429e+01  0.0000000000e+00 0. 9.
       15     1     7     0     0     0 -3.5489729273e+01 -4.8430253296e+01 -1.6466499359e+02  1.7527899909e+02  1.7768200000e+00  9.580218e-05 9.
      -16     1     7     0     0     0  2.2874689783e+01  1.2229998040e+01 -3.5468503766e+01  4.3941313637e+01  0.0000000000e+00 0. 9.
#pdf   21   21  3.084178e-02  7.193139e-02  1.767470e+02  3.123512e+00  1.263852e+00
</event>
<event>
    12  9999  1.000000e+00  1.697066e+02  7.872943e-03  1.078973e-01
       21    -1     0     0   101   102  0.0000000000e+00  0.0000000000e+00  3.6869257432e+01  3.6869257432e+01  0.0000000000e+00 0. 9.
       21    -1     0     0   102   103  0.0000000000e+00  0.0000000000e+00 -2.0905999228e+03  2.0905999228e+03  0.0000000000e+00 0. 9.
        6     2     1     2   101     0  1.0817899344e+01 -2.5543955331e+01 -1.9367566531e+02  2.6002159769e+02  1.7126426169e+02  2.999144e-13 9.
       -6     2     1     2     0   103 -1.0817899344e+01  2.5543955331e+01 -1.8600550000e+03  1.8674475825e+03  1.6366535884e+02  1.283712e-13 9.
       24     2     3     0     0     0  3.9127127351e+01  1.0652927032e+00 -2.0080221498e+02  2.2023099350e+02  8.1535844971e+01  1.306293e-14 9.
        5     1     3     0   101     0 -2.8309228007e+01 -2.6609248034e+01  7.1265496747e+00  3.9790604187e+01  4.8000000000e+00 0. 9.
      -24     2     4     0     0     0 -1.7904728291e+01 -2.9291981305e+01 -1.5509293775e+03  1.5533792880e+03  8.0166570526e+01  1.497765e-13 9.
       -5     1     4     0     0   103  7.0868289467e+00  5.4835936636e+01 -3.0912562252e+02  3.1406829447e+02  4.8000000000e+00 0. 9.
       -3     1     5     0     0   104 -1.8744080696e+01  3.2086990909e+00 -1.1588353559e+02  1.1743457810e+02  5.0000000000e-01 0. 9.
        4     1     5     0   104     0  5.7871208047e+01 -2.1434063877e+00 -8.4918679387e+01  1.0279641541e+02  1.5000000000e+00 0. 9.
       11     1     7     0     0     0 -1.4546776424e+01  2.0984184813e+01 -9.4936429494e+02  9.4970759143e+02  5.1100000000e-04 0. 9.
      -12     1     7     0     0     0 -3.3579518666e+00 -5.0276166118e+01 -6.0156508257e+02  6.0367169661e+02  0.0000000000e+00 0. 9.
#pdf   21   21  5.672193e-03  3.216308e-01  1.659996e+02  1.224086e+01  8.570279e-02
</event>
<event>
    12  9999  1.000000e+00  3.120069e+02  7.928056e-03  1.003247e-01
       21    -1     0     0   101   102  0.0000000000e+00  0.0000000000e+00  1.2908084971e+03  1.2908084971e+03  0.0000000000e+00 0. 9.
       21    -1     0     0   103   101  0.0000000000e+00  0.0000000000e+00 -8.3645381618e+01  8.3645381618e+01  0.0000000000e+00 0. 9.
        6     2     1     2   103     0  9.2304576700e+01  2.4519812725e+02  3.8942264821e+02  4.9949457074e+02  1.7088759689e+02  1.999313e-14 9.
       -6     2     1     2     0   102 -9.2304576700e+01 -2.4519812725e+02  8.1774046730e+02  8.7495930801e+02  1.6796446743e+02  7.848205e-14 9.
       24     2     3     0     0     0  5.8211416174e+01  2.2676811156e+02  3.8590719125e+02  4.6028478228e+02  9.0140862819e+01  3.569276e-14 9.
        5     1     3     0   103     0  3.4093160526e+01  1.8430015695e+01  3.5154569607e+00  3.9209788457e+01  4.8000000000e+00 0. 9.
      -24     2     4     0     0     0 -3.1256261683e+01 -1.2309449232e+02  2.5592649416e+02  2.9677752444e+02  8.0307662571e+01  2.102557e-14 9.
       -5     1     4     0     0   102 -6.1048315017e+01 -1.2210363494e+02  5.6181397314e+02  5.7818178356e+02  4.8000000000e+00 0. 9.
      -13     1     5     0     0     0  5.5417699263e-01  4.9152348173e+01  1.5895353989e+02  1.6638058616e+02  1.0566000000e-01  1.447764e+05 9.
       14     1     5     0     0     0  5.7657239181e+01  1.7761576339e+02  2.2695365135e+02  2.9390419612e+02  0.0000000000e+00 0. 9.
        1     1     7     0   104     0 -4.5070911530e+01 -1.0011868456e+02  2.4373670556e+02  2.6732532353e+02  3.3000000000e-01 0. 9.
       -2     1     7     0     0   104  1.3814649847e+01 -2.2975807758e+01  1.2189788606e+01  2.9452200916e+01  3.3000000000e-01 0. 9.
#pdf   21   21  1.985859e-01  1.286852e-02  3.112143e+02  2.507890e-01  6.652611e+00
</event>
<event>
    12  9999  1.000000e+00  2.382698e+02  7.903559e-03  1.035359e-01
       21    -1     0     0   101   102  0.0000000000e+00  0.0000000000e+00  9.4773781718e+02  9.4773781718e+02  0.0000000000e+00 0. 9.
       21    -1     0     0   102   103  0.0000000000e+00  0.0000000000e+00 -6.6555631049e+01  6.6555631049e+01  0.0000000000e+00 0. 9.
        6     2     1     2   101     0 -1.3989121487e+02  9.0292489774e+01  2.7956131730e+02  3.6705331356e+02  1.6985676071e+02  4.189574e-13 9.
       -6     2     1     2     0   103  1.3989121487e+02 -9.0292489774e+01  6.0162086883e+02  6.4724013467e+02  1.7102583549e+02  2.348656e-14 9.
       24     2     3     0     0     0 -6.2006975179e+01 -1.8981165133e+01  1.3590425913e+02  1.7041385463e+02  7.9785741816e+01  1.380291e-13 9.
        5     1     3     0   101     0 -7.7884239692e+01  1.0927365491e+02  1.4365705817e+02  1.9663945894e+02  4.8000000000e+00 0. 9.
      -24     2     4     0     0     0  3.9032775179e+01 -3.3717369011e+01  4.2876390514e+02  4.3921191773e+02  8.0051257412e+01  2.411593e-13 9.
       -5     1     4     0     0   103  1.0085843969e+02 -5.6575120763e+01  1.7285696369e+02  2.0802821694e+02  4.8000000000e+00 0. 9.
      -15     1     5     0     0     0 -3.4584051699e+01 -2.2789073515e+01  1.3656651285e+02  1.4271989358e+02  1.7768200000e+00  1.572845e-01 9.
       16     1     5     0     0     0 -2.7422923479e+01  3.8079083820e+00 -6.6225371165e-01  2.7693961045e+01  0.0000000000e+00 0. 9.
        3     1     7     0   104     0 -1.7688775589e+01 -1.5219508422e+01  2.4249658158e+02  2.4361725780e+02  5.0000000000e-01 0. 9.
       -4     1     7     0     0   104  5.6721550767e+01 -1.8497860589e+01  1.8626732356e+02  1.9559465993e+02  1.5000000000e+00 0. 9.
#pdf   21   21  1.458058e-01  1.023933e-02  2.378521e+02  4.562009e-01  7.981443e+00
</event>
<event>
    12  9999  1.000000e+00  1.817650e+02  7.879117e-03  1.069765e-01
       21    -1     0     0   101   102  0.0000000000e+00  0.0000000000e+00  4.9885197604e+01  4.9885197604e+01  0.0000000000e+00 0. 9.
       21    -1     0     0   102   103  0.0000000000e+00  0.0000000000e+00 -1.2019493996e+03  1.2019493996e+03  0.0000000000e+00 0. 9.
        6     2     1     2   101     0 -4.8567701948e+01 -3.7364534191e+01 -1.5769972715e+02  2.4110337801e+02  1.7177515786e+02  5.934018e-13 9.
       -6     2     1     2     0   103  4.8567701948e+01  3.7364534191e+01 -9.9436447488e+02  1.0107312192e+03  1.7047568309e+02  1.364501e-13 9.
       24     2     3     0     0     0 -4.9349145085e+01  3.2686470080e+01 -1.3535388261e+02  1.6741395801e+02  7.8759230257e+01  1.313160e-13 9.
        5     1     3     0   101     0  7.8144313717e-01 -7.0051004271e+01 -2.2345844541e+01  7.3689420007e+01  4.8000000000e+00 0. 9.
      -24     2     4     0     0     0  3.0405745129e+01 -4.3211086227e+01 -4.5168932170e+02  4.6178527548e+02  8.0191583088e+01  7.029715e-15 9.
       -5     1     4     0     0   103  1.8161956819e+01  8.0575620417e+01 -5.4267515318e+02  5.4894594375e+02  4.8000000000e+00 0. 9.
       -3     1     5     0     0   104 -5.8366300159e+01 -3.1860234413e+00 -1.0211371987e+02  1.1766153801e+02  5.0000000000e-01 0. 9.
        4     1     5     0   104     0  9.0171550740e+00  3.5872493521e+01 -3.3240162737e+01  4.9752420000e+01  1.5000000000e+00 0. 9.
       13     1     7     0     0     0  5.7363265204e+00 -3.1682109670e+01 -4.1420312815e+02  4.1545264958e+02  1.0566000000e-01  8.878118e+05 9.
      -14     1     7     0     0     0  2.4669418609e+01 -1.1528976556e+01 -3.7486193554e+01  4.6332625893e+01  0.0000000000e+00 0. 9.
#pdf   21   21  7.674646e-03  1.849153e-01  1.811543e+02  9.884424e+00  3.148958e-01
</event>
<event>
    12  9999  1.000000e+00  1.945793e+02  7.885254e-03  1.060889e-01
       21    -1     0     0   101   102  0.0000000000e+00  0.0000000000e+00  4.3172367261e+01  4.3172367261e+01  0.0000000000e+00 0. 9.
       21    -1     0     0   103   101  0.0000000000e+00  0.0000000000e+00 -1.1473153046e+03  1.1473153046e+03  0.0000000000e+00 0. 9.
        6     2     1     2   103     0 -9.7404856051e+01  1.6441964076e+00 -8.4491549986e+02  8.6744423085e+02  1.7054876830e+02  2.858609e-14 9.
       -6     2     1     2     0   102  9.7404856051e+01 -1.6441964076e+00 -2.5922743751e+02  3.2304344104e+02  1.6633637930e+02  6.979758e-15 9.
       24     2     3     0     0     0 -1.3234947603e+02  9.8554622060e+00 -5.8756032174e+02  6.0755333247e+02  7.9249013750e+01  9.410252e-14 9.
        5     1     3     0   103     0  3.4944619981e+01 -8.2112657983e+00 -2.5735517812e+02  2.5989089837e+02  4.8000000000e+00 0. 9.
      -24     2     4     0     0     0  3.1746304324e+01 -4.4541762784e+01 -2.0670380115e+02  2.2852879142e+02  8.0666911607e+01  5.328047e-14 9.
       -5     1     4     0     0   102  6.5658551727e+01  4.2897566377e+01 -5.2523636353e+01  9.4514649614e+01  4.8000000000e+00 0. 9.
       -1     1     5     0     0   104 -9.1533917275e+01  1.4795465333e+01 -2.3543450441e+02  2.5303533068e+02  3.3000000000e-01 0. 9.
        2     1     5     0   104     0 -4.0815558757e+01 -4.9400031274e+00 -3.5212581733e+02  3.5451800179e+02  3.3000000000e-01 0. 9.
        1     1     7     0   105     0  8.7177493708e+00 -2.4888332725e+01 -8.0403175285e+00  2.7571432060e+01  3.3000000000e-01 0. 9.
       -2     1     7     0     0   105  2.3028554953e+01 -1.9653430059e+01 -1.9866348363e+02  2.0095735936e+02  3.3000000000e-01 0. 9.
#pdf   21   21  6.641903e-03  1.765100e-01  1.927646e+02  1.099983e+01  3.393351e-01
</event>
<event>
    12  9999  1.000000e+00  3.202600e+02  7.930436e-03  1.000245e-01
       -1    -1     0     0     0   101  0.0000000000e+00  0.0000000000e+00  1.1122856078e+02  1.1122856078e+02  0.0000000000e+00 0. 9.
        1    -1     0     0   102     0  0.0000000000e+00  0.0000000000e+00 -1.9512804270e+03  1.9512804270e+03  0.0000000000e+00 0. 9.
       -6     2     1     2     0   101  6.8920808224e+01 -2.6087502091e+02 -1.6964926129e+02  3.6148158182e+02  1.7053506327e+02  3.306470e-13 9.
        6     2     1     2   102     0 -6.8920808224e+01  2.6087502091e+02 -1.6704026049e+03  1.7010274059e+03  1.7448071221e+02  1.493238e-13 9.
      -24     2     3     0     0     0 -6.3839104737e+00 -1.6746304427e+02 -1.5094756496e+02  2.3995219656e+02  8.1897886158e+01  8.587105e-14 9.
       -5     1     3     0     0   101  7.5304718698e+01 -9.3411976636e+01 -1.8701696327e+01  1.2152938526e+02  4.8000000000e+00 0. 9.
       24     2     4     0     0     0 -8.9912687547e+01  9.8624523415e+01 -9.0606944701e+02  9.1936629062e+02  8.0383117193e+01  2.353520e-14 9.
        5     1     4     0   102     0  2.0991879323e+01  1.6225049749e+02 -7.6433315788e+02  7.8166111530e+02  4.8000000000e+00 0. 9.
       15     1     5     0     0     0  3.0861758730e+01 -5.4516846542e+01 -7.9425545998e+01  1.0117365841e+02  1.7768200000e+00  9.213737e-02 9.
      -16     1     5     0     0     0 -3.7245669203e+01 -1.1294619773e+02 -7.1522018960e+01  1.3877853815e+02  0.0000000000e+00 0. 9.
       -1     1     7     0     0   103 -7.9438104365e+01  6.6705323462e+01 -8.2665787724e+02  8.3314066490e+02  3.3000000000e-01 0. 9.
        2     1     7     0   103     0 -1.0474583182e+01  3.1919199953e+01 -7.9411569765e+01  8.6225625721e+01  3.3000000000e-01 0. 9.
#pdf   -1    1  1.711209e-02  3.001970e-01  3.191991e+02  4.081701e-01  1.179676e-01
</event>
<event>
    12  9999  1.000000e+00  2.019514e+02  7.888609e-03  1.056107e-01
       21    -1     0     0   101   102  0.0000000000e+00  0.0000000000e+00  1.6808541088e+02  1.6808541088e+02  0.0000000000e+00 0. 9.
       21    -1     0     0   102   103  0.0000000000e+00  0.0000000000e+00 -2.5573166270e+02  2.5573166270e+02  0.0000000000e+00 0. 9.
        6     2     1     2   101     0 -1.2168986418e+02 -8.0615139945e+01  2.8382244691e+00  1.8116681074e+02  1.0726664887e+02  4.057802e-14 9.
       -6     2     1     2     0   103  1.2168986418e+02  8.0615139945e+01 -9.0484476292e+01  2.4265026285e+02  1.7141903563e+02  1.359850e-13 9.
       24     2     3     0     0     0 -1.1920673292e+02 -5.3823530657e+01  6.5300701067e+00  1.5358736199e+02  8.0244740142e+01  1.589835e-14 9.
        5     1     3     0   101     0 -2.4831312647e+00 -2.6791609288e+01 -3.6918456377e+00  2.7579448750e+01  4.8000000000e+00 0. 9.
      -24     2     4     0     0     0  3.6248917979e+01 -2.2049392842e+01 -3.5717996289e+01  9.8211456038e+01  8.1052791801e+01  5.399814e-14 9.
       -5     1     4     0     0   103  8.5440946205e+01  1.0266453279e+02 -5.4766480003e+01  1.4443880681e+02  4.8000000000e+00 0. 9.
      -15     1     5     0     0     0 -5.5498697584e+01  1.7111497069e+01  2.2852257856e+00  5.8148844457e+01  1.7768200000e+00  4.166064e-02 9.
       16     1     5     0     0     0 -6.3708035335e+01 -7.0935027726e+01  4.2448443212e+00  9.5438517529e+01  0.0000000000e+00 0. 9.
       11     1     7     0     0     0  2.7261779938e+01 -2.8871207683e+01  1.7801154599e+01  4.3515886568e+01  5.1100000000e-04 0. 9.
      -12     1     7     0     0     0  8.9871380413e+00  6.8218148415e+00 -5.3519150888e+01  5.4695569470e+01  0.0000000000e+00 0. 9.
#pdf   21   21  2.585929e-02  3.934333e-02  1.811446e+02  3.678175e+00  2.457776e+00
</event>
<event>
    12  9999  1.000000e+00  3.046012e+02  7.925868e-03  1.006026e-01
       21    -1     0     0   101   102  0.0000000000e+00  0.0000000000e+00  7.4596018515e+02  7.4596018515e+02  0.0000000000e+00 0. 9.
       21    -1     0     0   102   103  0.0000000000e+00  0.0000000000e+00 -1.9241343679e+02  1.9241343679e+02  0.0000000000e+00 0. 9.
        6     2     1     2   101     0 -1.3101587575e+02 -2.1555056235e+02  5.5570985927e+02  6.3366999798e+02  1.7057846883e+02  7.780114e-14 9.
       -6     2     1     2     0   103  1.3101587575e+02  2.1555056235e+02 -2.1631109122e+00  3.0470362396e+02  1.7091639705e+02  1.487448e-13 9.
       24     2     3     0     0     0 -3.1889139806e+01 -1.5314082573e+02  4.1323679395e+02  4.4916336031e+02  8.0709643967e+01  1.216386e-14 9.
        5     1     3     0   101     0 -9.9126735942e+01 -6.2409736615e+01  1.4247306532e+02  1.8450663767e+02  4.8000000000e+00 0. 9.
      -24     2     4     0     0     0 -3.2175372085e-04  5.4335954753e+01 -2.0105291817e+01  9.6136235415e+01  7.6717384090e+01  5.581782e-14 9.
       -5     1     4     0     0   103  1.3101619750e+02  1.6121460760e+02  1.7942180905e+01  2.0856738855e+02  4.8000000000e+00 0. 9.
       -3     1     5     0     0   104  1.3431541483e+01  1.0890001951e+00  5.2926059994e+01  5.4616939264e+01  5.0000000000e-01 0. 9.
        4     1     5     0   104     0 -4.5320681289e+01 -1.5422982593e+02  3.6031073395e+02  3.9454642105e+02  1.5000000000e+00 0. 9.
        1     1     7     0   105     0 -1.4858052470e+01  9.2956276455e+00 -4.0786978668e+01  4.4394334609e+01  3.3000000000e-01 0. 9.
       -2     1     7     0     0   105  1.4857730716e+01  4.5040327108e+01  2.0681686851e+01  5.1741900806e+01  3.3000000000e-01 0. 9.
#pdf   21   21  1.147631e-01  2.960207e-02  3.045065e+02  6.417752e-01  3.180417e+00
</event>
<event>
    12  9999  1.000000e+00  2.033111e+02  7.889214e-03  1.055249e-01
        2    -1     0     0   101     0  0.0000000000e+00  0.0000000000e+00  3.6303307183e+02  3.6303307183e+02  0.0000000000e+00 0. 9.
       -2    -1     0     0     0   102  0.0000000000e+00  0.0000000000e+00 -1.2385306122e+02  1.2385306122e+02  0.0000000000e+00 0. 9.
        6     2     1     2   101     0 -1.1085853122e+02 -7.0156474002e+00  1.8905835225e+02  2.7807310179e+02  1.7100513481e+02  8.442115e-14 9.
       -6     2     1     2     0   102  1.1085853122e+02  7.0156474002e+00  5.0121658363e+01  2.0881303125e+02  1.6956375831e+02  1.611713e-13 9.
       24     2     3     0     0     0 -1.2957863592e+02 -2.6979218411e+01  9.8690748562e+01  1.8353035863e+02  8.0156269727e+01  1.631506e-13 9.
        5     1     3     0   101     0  1.8720104696e+01  1.9963571011e+01  9.0367603689e+01  9.4542743158e+01  4.8000000000e+00 0. 9.
      -24     2     4     0     0     0  1.2140556469e+02  2.0224709993e+01  8.4808522004e+01  1.6992938741e+02  8.0840344304e+01  5.540029e-14 9.
       -5     1     4     0     0   102 -1.0547033470e+01 -1.3209062592e+01 -3.4686863642e+01  3.8883643848e+01  4.8000000000e+00 0. 9.
       -3     1     5     0     0   103 -3.1110783472e+01 -8.4256863380e+00 -1.1833818906e+01  3.4338932837e+01  5.0000000000e-01 0. 9.
        4     1     5     0   103     0 -9.8467852445e+01 -1.8553532073e+01  1.1052456747e+02  1.4919142580e+02  1.5000000000e+00 0. 9.
        1     1     7     0   104     0  9.6825887680e+01 -2.1166214392e+01  5.7182159553e+01  1.1442538804e+02  3.3000000000e-01 0. 9.
       -2     1     7     0     0   104  2.4579677010e+01  4.1390924384e+01  2.7626362451e+01  5.5503999366e+01  3.3000000000e-01 0. 9.
#pdf    2   -2  5.585124e-02  1.905432e-02  2.027084e+02  6.171180e-01  3.465310e-01
</event>
<event>
    12  9999  1.000000e+00  2.023934e+02  7.888806e-03  1.055827e-01
       21    -1     0     0   101   102  0.0000000000e+00  0.0000000000e+00  4.0364800018e+01  4.0364800018e+01  0.0000000000e+00 0. 9.
       21    -1     0     0   103   101  0.0000000000e+00  0.0000000000e+00 -1.4240386812e+03  1.4240386812e+03  0.0000000000e+00 0. 9.
        6     2     1     2   103     0  1.0823267204e+02 -9.7230542403e+00 -3.0004546598e+02  3.6208989361e+02  1.7109342569e+02  2.606418e-13 9.
       -6     2     1     2     0   102 -1.0823267204e+02  9.7230542403e+00 -1.0836284152e+03  1.1023135876e+03  1.7039910249e+02  7.006356e-14 9.
       24     2     3     0     0     0  6.1825955237e+01 -6.2567494262e+01 -1.2151243396e+02  1.7014406341e+02  8.0290663394e+01  2.435691e-15 9.
        5     1     3     0   103     0  4.6406716799e+01  5.2844440022e+01 -1.7853303203e+02  1.9194583020e+02  4.8000000000e+00 0. 9.
      -24     2     4     0     0     0 -7.9374298794e+01  1.5960741792e+00 -1.0519998110e+03  1.0584699778e+03  8.5745349614e+01  2.088230e-13 9.
       -5     1     4     0     0   102 -2.8858373242e+01  8.1269800611e+00 -3.1628604235e+01  4.3843609762e+01  4.8000000000e+00 0. 9.
       -3     1     5     0     0   104 -1.3758067682e+01 -1.0451741121e+01  6.7824541224e-01  1.7298362224e+01  5.0000000000e-01 0. 9.
        4     1     5     0   104     0  7.5584022919e+01 -5.2115753141e+01 -1.2219067937e+02  1.5284570119e+02  1.5000000000e+00 0. 9.
        3     1     7     0   105     0 -3.3282151971e+01  1.0702868101e+01 -1.1280208418e+02  1.1809662663e+02  5.0000000000e-01 0. 9.
       -4     1     7     0     0   105 -4.6092146823e+01 -9.1067939223e+00 -9.3919772677e+02  9.4037335121e+02  1.5000000000e+00 0. 9.
#pdf   21   21  6.209969e-03  2.190829e-01  2.021007e+02  1.156081e+01  2.212702e-01
</event>
<event>
    12  9999  1.000000e+00  1.726814e+02  7.874505e-03  1.076543e-01
       21    -1     0     0   101   102  0.0000000000e+00  0.0000000000e+00  9.8348512065e+01  9.8348512065e+01  0.0000000000e+00 0. 9.
       21    -1     0     0   102   103  0.0000000000e+00  0.0000000000e+00 -4.1146974749e+02  4.1146974749e+02  0.0000000000e+00 0. 9.
        6     2     1     2   101     0 -2.7357855324e+00  2.3970191904e+01 -2.8715421927e+02  3.3494818037e+02  1.7073571176e+02  2.343610e-14 9.
       -6     2     1     2     0   103  2.7357855324e+00 -2.3970191904e+01 -2.5967016162e+01  1.7487007919e+02  1.7124019401e+02  3.301486e-14 9.
       24     2     3     0     0     0 -6.1679625233e+01  1.5528873856e+01 -2.3135825174e+02  2.5320552271e+02  8.0875669962e+01  8.319693e-14 9.
        5     1     3     0   101     0  5.8943839701e+01  8.4413180481e+00 -5.5795967532e+01  8.1742657663e+01  4.8000000000e+00 0. 9.
      -24     2     4     0     0     0  3.3313591971e+01 -4.1656371680e+01 -6.7842086247e+01  1.1987585498e+02  8.3202303026e+01  7.471939e-14 9.
       -5     1     4     0     0   103 -3.0577806439e+01  1.7686179776e+01  4.1875070085e+01  5.4994224209e+01  4.8000000000e+00 0. 9.
       -3     1     5     0     0   104  6.9300900943e+00  3.1585268012e+01 -6.8482426852e+01  7.5734721836e+01  5.0000000000e-01 0. 9.
        4     1     5     0   104     0 -6.8609715328e+01 -1.6056394157e+01 -1.6287582488e+02  1.7747080087e+02  1.5000000000e+00 0. 9.
        1     1     7     0   105     0 -2.7500398418e+01 -6.9824697349e+00 -1.4508207531e+01  3.1868852858e+01  3.3000000000e-01 0. 9.
       -2     1     7     0     0   105  6.0813990390e+01 -3.4673901945e+01 -5.3333878717e+01  8.8007002120e+01  3.3000000000e-01 0. 9.
#pdf   21   21  1.513054e-02  6.330304e-02  1.724318e+02  5.844424e+00  1.473223e+00
</event>
<event>
    12  9999  1.000000e+00  1.892408e+02  7.882747e-03  1.064495e-01
       21    -1     0     0   101   102  0.0000000000e+00  0.0000000000e+00  3.9407030872e+01  3.9407030872e+01  0.0000000000e+00 0. 9.
       21    -1     0     0   102   103  0.0000000000e+00  0.0000000000e+00 -1.1288135332e+03  1.1288135332e+03  0.0000000000e+00 0. 9.
        6     2     1     2   101     0  7.0295023113e+01 -4.2857695013e+01 -2.8698120424e+02  3.4379888432e+02  1.7047371931e+02  6.711657e-14 9.
       -6     2     1     2     0   103 -7.0295023113e+01  4.2857695013e+01 -8.0242529813e+02  8.2442167980e+02  1.7031316666e+02  2.588143e-13 9.
       24     2     3     0     0     0  3.0783019130e+01  3.7034804725e+01 -1.0632585085e+02  1.4229601417e+02  8.1386719187e+01  6.200364e-14 9.
        5     1     3     0   101     0  3.9512003983e+01 -7.9892499738e+01 -1.8065535338e+02  2.0150287015e+02  4.8000000000e+00 0. 9.
      -24     2     4     0     0     0  1.6606840427e+01  4.8220231495e+01 -3.0925539359e+02  3.2360206613e+02  8.0488638119e+01  3.468538e-14 9.
       -5     1     4     0     0   103 -8.6901863540e+01 -5.3625364814e+00 -4.9316990454e+02  5.0081961366e+02  4.8000000000e+00 0. 9.
       -3     1     5     0     0   104  3.5378406464e+01 -9.2636446201e+00 -8.2014423539e+01  8.9800124855e+01  5.0000000000e-01 0. 9.
        2     1     5     0   104     0 -4.5953873336e+00  4.6298449345e+01 -2.4311427315e+01  5.2495889311e+01  3.3000000000e-01 0. 9.
       15     1     7     0     0     0  2.3405168085e+01  1.5782713951e+01 -2.7307695439e+02  2.7453793192e+02  1.7768200000e+00  7.381556e-02 9.
      -16     1     7     0     0     0 -6.7983276582e+00  3.2437517543e+01 -3.6178439197e+01  4.9064134213e+01  0.0000000000e+00 0. 9.
#pdf   21   21  6.062620e-03  1.736636e-01  1.891686e+02  1.173690e+01  3.503619e-01
</event>
<event>
    12  9999  1.000000e+00  2.864270e+02  7.920268e-03  1.013215e-01
        2    -1     0     0   101     0  0.0000000000e+00  0.0000000000e+00  5.4972385323e+02  5.4972385323e+02  0.0000000000e+00 0. 9.
       -2    -1     0     0     0   102  0.0000000000e+00  0.0000000000e+00 -1.6979360068e+02  1.6979360068e+02  0.0000000000e+00 0. 9.
        6     2     1     2   101     0  5.5955613026e+01  2.2241945790e+02  6.4625866953e+01  2.9334370125e+02  1.7109230989e+02  4.790377e-14 9.
       -6     2     1     2     0   102 -5.5955613026e+01 -2.2241945790e+02  3.1530438559e+02  4.2617375266e+02  1.7206326162e+02  8.323345e-13 9.
       24     2     3     0     0     0 -2.6441102949e+01  1.1221329901e+02  6.5081742727e+01  1.5565614160e+02  8.1867238757e+01  2.405595e-13 9.
        5     1     3     0   101     0  8.2396715975e+01  1.1020615889e+02 -4.5587577354e-01  1.3768755965e+02  4.8000000000e+00 0. 9.
      -24     2     4     0     0     0  1.4693501371e+01 -1.4663971300e+02  2.5871460796e+02  3.0802422860e+02  7.8908634665e+01  3.461636e-14 9.
       -5     1     4     0     0   102 -7.0649114398e+01 -7.5779744893e+01  5.6589777635e+01  1.1814952405e+02  4.8000000000e+00 0. 9.
      -13     1     5     0     0     0  1.9254589838e+00  2.3678710590e+01  5.7695481434e+01  6.2395259992e+01  1.0566000000e-01  1.471105e+05 9.
       14     1     5     0     0     0 -2.8366561932e+01  8.8534588418e+01  7.3862612924e+00  9.3260881607e+01  0.0000000000e+00 0. 9.
        1     1     7     0   103     0 -8.0946003151e+00 -1.0744052342e+01  8.6151844985e+01  8.7196367523e+01  3.3000000000e-01 0. 9.
       -2     1     7     0     0   103  2.2788101686e+01 -1.3589566066e+02  1.7256276297e+02  2.2082786108e+02  3.3000000000e-01 0. 9.
#pdf    2   -2  8.457290e-02  2.612209e-02  2.861364e+02  5.882124e-01  2.766521e-01
</event>
<event>
    12  9999  1.000000e+00  2.180841e+02  7.895549e-03  1.046361e-01
       21    -1     0     0   101   102  0.0000000000e+00  0.0000000000e+00  7.7344148444e+01  7.7344148444e+01  0.0000000000e+00 0. 9.
       21    -1     0     0   102   103  0.0000000000e+00  0.0000000000e+00 -9.3186096882e+02  9.3186096882e+02  0.0000000000e+00 0. 9.
        6     2     1     2   101     0 -7.3231118950e+00  1.3480754944e+02 -1.3266876285e+02  2.5506325928e+02  1.7096655300e+02  9.927320e-14 9.
       -6     2     1     2     0   103  7.3231118950e+00 -1.3480754944e+02 -7.2184805753e+02  7.5414185799e+02  1.7157686458e+02  3.990865e-15 9.
       24     2     3     0     0     0  1.1139587684e+01  5.8466489594e+01 -1.4291277177e+02  1.7571082760e+02  8.3113258770e+01  1.781437e-13 9.
        5     1     3     0   101     0 -1.8462699579e+01  7.6341059845e+01  1.0244008920e+01  7.9352431675e+01  4.8000000000e+00 0. 9.
      -24     2     4     0     0     0  5.9398398540e+01 -3.5368892383e+01 -3.5722121621e+02  3.7259807884e+02  8.0269563018e+01  5.980752e-15 9.
       -5     1     4     0     0   103 -5.2075286645e+01 -9.9438657056e+01 -3.6462684132e+02  3.8154377915e+02  4.8000000000e+00 0. 9.
       -3     1     5     0     0   104  9.6121459417e-01 -1.7929655308e+01 -5.9414001909e+01  6.2069880746e+01  5.0000000000e-01 0. 9.
        4     1     5     0   104     0  1.0178373090e+01  7.6396144902e+01 -8.3498769857e+01  1.1364094686e+02  1.5000000000e+00 0. 9.
        1     1     7     0   105     0  3.0385437739e+01 -4.7642294761e+01 -1.1287902099e+02  1.2623329734e+02  3.3000000000e-01 0. 9.
       -2     1     7     0     0   105  2.9012960801e+01  1.2273402378e+01 -2.4434219522e+02  2.4636478150e+02  3.3000000000e-01 0. 9.
#pdf   21   21  1.189910e-02  1.433632e-01  2.178446e+02  7.091185e+00  4.745214e-01
</event>
<event>
    12  9999  1.000000e+00  2.564215e+02  7.910215e-03  1.026410e-01
       21    -1     0     0   101   102  0.0000000000e+00  0.0000000000e+00  1.1344350292e+03  1.1344350292e+03  0.0000000000e+00 0. 9.
       21    -1     0     0   102   103  0.0000000000e+00  0.0000000000e+00 -7.0565012500e+01  7.0565012500e+01  0.0000000000e+00 0. 9.
        6     2     1     2   101     0  1.9450905074e+02 -2.2160671400e+01  2.8266326432e+02  3.8373962348e+02  1.7038988074e+02  8.502544e-14 9.
       -6     2     1     2     0   103 -1.9450905074e+02  2.2160671400e+01  7.8120675234e+02  8.2126041817e+02  1.6080988272e+02  1.777219e-13 9.
       24     2     3     0     0     0  1.5566397838e+02  3.3762940911e+01  1.4279253007e+02  2.2810141365e+02  7.9179150799e+01  1.973029e-14 9.
        5     1     3     0   101     0  3.8845072359e+01 -5.5923612311e+01  1.3987073425e+02  1.5563820983e+02  4.8000000000e+00 0. 9.
      -24     2     4     0     0     0 -1.3825218865e+02  4.1626472604e+01  6.9399020909e+02  7.1555555847e+02  9.7728788252e+01  3.638247e-14 9.
       -5     1     4     0     0   103 -5.6256862094e+01 -1.9465801204e+01  8.7216543245e+01  1.0570485970e+02  4.8000000000e+00 0. 9.
       -1     1     5     0     0   104  1.0062831290e+02 -1.7778047950e+01  7.5711853109e+01  1.2717904680e+02  3.3000000000e-01 0. 9.
        2     1     5     0   104     0  5.5035665486e+01  5.1540988861e+01  6.7080676956e+01  1.0092236684e+02  3.3000000000e-01 0. 9.
       13     1     7     0     0     0 -5.4968639127e+01 -2.7731339603e+01  1.7924853373e+02  1.8952737663e+02  1.0566000000e-01  4.799333e+05 9.
      -14     1     7     0     0     0 -8.3283549519e+01  6.9357812207e+01  5.1474167537e+02  5.2602818185e+02  0.0000000000e+00 0. 9.
#pdf   21   21  1.745285e-01  1.085616e-02  2.533470e+02  3.317700e-01  7.626597e+00
</event>
<event>
    12  9999  1.000000e+00  2.933865e+02  7.922452e-03  1.010397e-01
       21    -1     0     0   101   102  0.0000000000e+00  0.0000000000e+00  9.0895740804e+01  9.0895740804e+01  0.0000000000e+00 0. 9.
       21    -1     0     0   103   101  0.0000000000e+00  0.0000000000e+00 -1.8014521063e+03  1.8014521063e+03  0.0000000000e+00 0. 9.
        6     2     1     2   103     0  1.4303420992e+02 -1.9021501686e+02 -1.5072521838e+03  1.5355816708e+03  1.7193424350e+02  8.519251e-14 9.
       -6     2     1     2     0   102 -1.4303420992e+02  1.9021501686e+02 -2.0330418169e+02  3.5676617636e+02  1.7119864618e+02  3.380228e-13 9.
       24     2     3     0     0     0  1.0394000655e+02 -1.8388367600e+02 -9.3197235955e+02  9.5892028066e+02  7.9617174274e+01  7.972061e-15 9.
        5     1     3     0   103     0  3.9094203362e+01 -6.3313408656e+00 -5.7527982427e+02  5.7666139010e+02  4.8000000000e+00 0. 9.
      -24     2     4     0     0     0 -1.4530947189e+02  1.4285879357e+02 -9.5439524038e+01  2.3884411281e+02  8.0089512134e+01  6.018247e-14 9.
       -5     1     4     0     0   102  2.2752619740e+00  4.7356223294e+01 -1.0786465765e+02  1.1792206355e+02  4.8000000000e+00 0. 9.
       -3     1     5     0     0   104  3.9178678489e+01 -9.4809743767e+01 -2.9097704492e+02  3.0853159811e+02  5.0000000000e-01 0. 9.
        4     1     5     0   104     0  6.4761328066e+01 -8.9073932232e+01 -6.4099531463e+02  6.5038868256e+02  1.5000000000e+00 0. 9.
       15     1     7     0     0     0 -1.1106533943e+02  9.9111071976e+01 -1.0539849123e+02  1.8240206483e+02  1.7768200000e+00  1.744144e-01 9.
      -16     1     7     0     0     0 -3.4244132457e+01  4.3747721594e+01  9.9589671930e+00  5.6442047978e+01  0.0000000000e+00 0. 9.
#pdf   21   21  1.398396e-02  2.771465e-01  2.931715e+02  6.214832e+00  1.163202e-01
</event>
<event>
    12  9999  1.000000e+00  1.716072e+02  7.873944e-03  1.077375e-01
       -2    -1     0     0     0   101  0.0000000000e+00  0.0000000000e+00  7.2889924708e+01  7.2889924708e+01  0.0000000000e+00 0. 9.
        2    -1     0     0   102     0  0.0000000000e+00  0.0000000000e+00 -4.5831764851e+02  4.5831764851e+02  0.0000000000e+00 0. 9.
       -6     2     1     2     0   101  1.7814278708e+00 -7.6573349382e+00 -2.8411100096e+02  3.3190409972e+02  1.7140438232e+02  2.889413e-13 9.
        6     2     1     2   102     0 -1.7814278708e+00  7.6573349382e+00 -1.0131672284e+02  1.9930347350e+02  1.7144966596e+02  1.012858e-13 9.
      -24     2     3     0     0     0 -2.6559452751e+01  5.5322790761e+01 -1.6049219699e+02  1.9022011882e+02  8.1608410118e+01  9.047555e-14 9.
       -5     1     3     0     0   101  2.8340880622e+01 -6.2980125699e+01 -1.2361880397e+02  1.4168398090e+02  4.8000000000e+00 0. 9.
       24     2     4     0     0     0  3.4766289097e+01 -5.1803853394e+01 -5.5058529974e+01  1.1543316325e+02  8.0006495810e+01  1.151256e-13 9.
        5     1     4     0   102     0 -3.6547716968e+01  5.9461188332e+01 -4.6258192867e+01  8.3870310246e+01  4.8000000000e+00 0. 9.
        1     1     5     0   103     0  2.3731479934e+01  1.8250479514e+01 -9.5429985213e+01  1.0001626928e+02  3.3000000000e-01 0. 9.
       -2     1     5     0     0   103 -5.0290932685e+01  3.7072311246e+01 -6.5062211779e+01  9.0203849547e+01  3.3000000000e-01 0. 9.
      -13     1     7     0     0     0 -7.4768444001e+00  1.1413438328e+01 -3.3852571427e+01  3.6499007286e+01  1.0566000000e-01  4.084635e+05 9.
       14     1     7     0     0     0  4.2243133497e+01 -6.3217291723e+01 -2.1205958548e+01  7.8934155968e+01  0.0000000000e+00 0. 9.
#pdf   -2    2  1.121383e-02  7.051041e-02  1.715846e+02  4.838403e-01  6.059905e-01
</event>
<event>
    12  9999  1.000000e+00  1.903619e+02  7.883279e-03  1.063728e-01
       21    -1     0     0   101   102  0.0000000000e+00  0.0000000000e+00  2.5324902509e+02  2.5324902509e+02  0.0000000000e+00 0. 9.
       21    -1     0     0   103   101  0.0000000000e+00  0.0000000000e+00 -1.6609631271e+02  1.6609631271e+02  0.0000000000e+00 0. 9.
        6     2     1     2   103     0  6.4277808088e+00 -8.4321450488e+01 -3.4469728548e+01  1.9339038274e+02  1.7047068537e+02  5.750197e-14 9.
       -6     2     1     2     0   102 -6.4277808088e+00  8.4321450488e+01  1.2162244093e+02  2.2595495506e+02  1.7062297676e+02  1.305715e-13 9.
       24     2     3     0     0     0  3.3334953318e+01 -6.8986508808e+00 -6.2367087995e+01  1.0667482188e+02  7.9567917286e+01  1.092168e-14 9.
        5     1     3     0   103     0 -2.6907172509e+01 -7.7422799607e+01  2.7897359447e+01  8.6715560862e+01  4.8000000000e+00 0. 9.
      -24     2     4     0     0     0 -3.0713253070e+01 -1.1406796003e+01  7.2366206301e+01  1.1548822708e+02  8.3828657815e+01  6.524654e-14 9.
       -5     1     4     0     0   102  2.4285472261e+01  9.5728246491e+01  4.9256234630e+01  1.1046672797e+02  4.8000000000e+00 0. 9.
       -3     1     5     0     0   104 -8.6990713484e+00  2.7304747123e+01 -3.7050605490e+01  4.6842506604e+01  5.0000000000e-01 0. 9.
        4     1     5     0   104     0  4.2034024667e+01 -3.4203398004e+01 -2.5316482505e+01  5.9832315275e+01  1.5000000000e+00 0. 9.
        3     1     7     0   105     0  3.7241155346e-02  2.7711067948e+01  5.7015711534e+01  6.3395157824e+01  5.0000000000e-01 0. 9.
       -4     1     7     0     0   105 -3.0750494225e+01 -3.9117863952e+01  1.5350494767e+01  5.2093069259e+01  1.5000000000e+00 0. 9.
#pdf   21   21  3.896139e-02  2.555328e-02  1.902937e+02  2.476288e+00  3.713342e+00
</event>
<event>
    12  9999  1.000000e+00  1.977792e+02  7.886725e-03  1.058786e-01
       21    -1     0     0   101   102  0.0000000000e+00  0.0000000000e+00  1.7843215167e+03  1.7843215167e+03  0.0000000000e+00 0. 9.
       21    -1     0     0   102   103  0.0000000000e+00  0.0000000000e+00 -7.9309276638e+01  7.9309276638e+01  0.0000000000e+00 0. 9.
        6     2     1     2   101     0 -8.8552955748e+01 -3.9440211508e+01  1.6452236815e+03  1.6570770888e+03  1.7247133023e+02  3.898375e-14 9.
       -6     2     1     2     0   103  8.8552955748e+01  3.9440211508e+01  5.9788558551e+01  2.0655370454e+02  1.7231542262e+02  1.200873e-13 9.
       24     2     3     0     0     0 -7.4005314910e+01 -8.9782521579e+01  1.3322003339e+03  1.3396615280e+03  7.9984950765e+01  1.914128e-13 9.
        5     1     3     0   101     0 -1.4547640838e+01  5.0342310070e+01  3.1302334763e+02  3.1741556074e+02  4.8000000000e+00 0. 9.
      -24     2     4     0     0     0  9.8302127459e+01  8.1908606494e+01  3.0965046090e+01  1.5408994760e+02  8.0078397784e+01  1.422340e-13 9.
       -5     1     4     0     0   103 -9.7491717114e+00 -4.2468394986e+01  2.8823512461e+01  5.2463756941e+01  4.8000000000e+00 0. 9.
       -3     1     5     0     0   104 -5.6895128832e+01 -1.1296927687e+01  6.9487117571e+02  6.9728823101e+02  5.0000000000e-01 0. 9.
        4     1     5     0   104     0 -1.7110186078e+01 -7.8485593892e+01  6.3732915814e+02  6.4237329702e+02  1.5000000000e+00 0. 9.
        1     1     7     0   105     0  9.1043760030e+01  3.5993359129e+01 -5.9437978996e-01  9.7902759558e+01  3.3000000000e-01 0. 9.
       -2     1     7     0     0   105  7.2583674294e+00  4.5915247366e+01  3.1559425880e+01  5.6187188044e+01  3.3000000000e-01 0. 9.
#pdf   21   21  2.745110e-01  1.220143e-02  1.977113e+02  1.306185e-01  6.950624e+00
</event>
<event>
    12  9999  1.000000e+00  1.730772e+02  7.874711e-03  1.076239e-01
        2    -1     0     0   101     0  0.0000000000e+00  0.0000000000e+00  2.2638880318e+02  2.2638880318e+02  0.0000000000e+00 0. 9.
       -2    -1     0     0     0   102  0.0000000000e+00  0.0000000000e+00 -1.3476943000e+02  1.3476943000e+02  0.0000000000e+00 0. 9.
        6     2     1     2   101     0  2.7667949003e+01  5.1244881286e+00  6.9858763627e+01  1.8567618573e+02  1.6971630243e+02  2.054137e-13 9.
       -6     2     1     2     0   102 -2.7667949003e+01 -5.1244881286e+00  2.1760609555e+01  1.7548204746e+02  1.7183902081e+02  2.685125e-15 9.
       24     2     3     0     0     0  2.0205350487e+01  6.4745916063e+01  6.6263384064e+01  1.2529099052e+02  8.1894483350e+01  6.334947e-14 9.
        5     1     3     0   101     0  7.4625985153e+00 -5.9621427935e+01  3.5953795637e+00  6.0385195204e+01  4.8000000000e+00 0. 9.
      -24     2     4     0     0     0 -5.7679791008e+01  4.0697566629e+01 -1.5190749105e+01  1.0923392092e+02  8.1963652931e+01  5.172582e-14 9.
       -5     1     4     0     0   102  3.0011842005e+01 -4.5822054758e+01  3.6951358660e+01  6.6248126536e+01  4.8000000000e+00 0. 9.
       -1     1     5     0     0   103 -1.6592367694e+01  4.6206209788e+01  2.2318936949e+00  4.9146828363e+01  3.3000000000e-01 0. 9.
        2     1     5     0   103     0  3.6797718181e+01  1.8539706276e+01  6.4031490369e+01  7.6144162159e+01  3.3000000000e-01 0. 9.
        1     1     7     0   104     0  1.5936341970e+01 -5.7908533848e+00  8.5444561642e+00  1.8989934425e+01  3.3000000000e-01 0. 9.
       -2     1     7     0     0   104 -7.3616132978e+01  4.6488420014e+01 -2.3735205269e+01  9.0243986499e+01  3.3000000000e-01 0. 9.
#pdf    2   -2  3.482905e-02  2.073376e-02  1.720331e+02  6.384504e-01  3.249311e-01
</event>
<event>
    12  9999  1.000000e+00  1.869548e+02  7.881652e-03  1.066079e-01
       21    -1     0     0   101   102  0.0000000000e+00  0.0000000000e+00  8.1238144544e+01  8.1238144544e+01  0.0000000000e+00 0. 9.
       21    -1     0     0   102   103  0.0000000000e+00  0.0000000000e+00 -4.7801385559e+02  4.7801385559e+02  0.0000000000e+00 0. 9.
        6     2     1     2   101     0 -7.7708159970e+01 -5.6352040343e+00 -2.8700007272e+02  3.4264461736e+02  1.7019394354e+02  1.080232e-13 9.
       -6     2     1     2     0   103  7.7708159970e+01  5.6352040343e+00 -1.0977563833e+02  2.1660738278e+02  1.6969900958e+02  1.598648e-14 9.
       24     2     3     0     0     0 -1.1984253919e+02 -1.3083484915e+01 -2.2493959356e+02  2.6711100979e+02  7.8848329228e+01  6.736268e-14 9.
        5     1     3     0   101     0  4.2134379217e+01  7.4482808806e+00 -6.2060479153e+01  7.5533607572e+01  4.8000000000e+00 0. 9.
      -24     2     4     0     0     0  6.1239743079e+01 -5.4380572177e+01 -1.0161920362e+02  1.5365764428e+02  8.1096586483e+01  5.981654e-14 9.
       -5     1     4     0     0   103  1.6468416891e+01  6.0015776212e+01 -8.1564347102e+00  6.2949738493e+01  4.8000000000e+00 0. 9.
       -3     1     5     0     0   104 -5.2792901088e+01 -1.1440531912e-01 -1.7421976014e+02  1.8204361652e+02  5.0000000000e-01 0. 9.
        2     1     5     0   104     0 -6.7049638099e+01 -1.2969079596e+01 -5.0719833427e+01  8.5067393269e+01  3.3000000000e-01 0. 9.
       15     1     7     0     0     0  4.0466453518e+01 -2.3074448344e+01 -1.4115331341e+00  4.6638112545e+01  1.7768200000e+00  3.897320e-02 9.
      -16     1     7     0     0     0  2.0773289561e+01 -3.1306123834e+01 -1.0020767049e+02  1.0701953174e+02  0.0000000000e+00 0. 9.
#pdf   21   21  1.249818e-02  7.354059e-02  1.867299e+02  6.818099e+00  1.224803e+00
</event>
<event>
    12  9999  1.000000e+00  1.856019e+02  7.880998e-03  1.067027e-01
       21    -1     0     0   101   102  0.0000000000e+00  0.0000000000e+00  4.2855011659e+02  4.2855011659e+02  0.0000000000e+00 0. 9.
       21    -1     0     0   102   103  0.0000000000e+00  0.0000000000e+00 -1.8160880820e+02  1.8160880820e+02  0.0000000000e+00 0. 9.
        6     2     1     2   101     0 -4.4470858383e+01  5.6623857039e+01  3.5110460912e+02  3.9693375273e+02  1.7058147343e+02  1.964361e-13 9.
       -6     2     1     2     0   103  4.4470858383e+01 -5.6623857039e+01 -1.0416330073e+02  2.1322517206e+02  1.7155483773e+02  8.608588e-14 9.
       24     2     3     0     0     0 -3.5076814346e+01  3.4488250875e+01  7.0520538275e+01  1.1528025295e+02  7.6789114133e+01  1.194079e-13 9.
        5     1     3     0   101     0 -9.3940440374e+00  2.2135606164e+01  2.8058407085e+02  2.8165349978e+02  4.8000000000e+00 0. 9.
      -24     2     4     0     0     0  4.1154948961e+01 -3.4008677176e+01 -9.9282162605e+01  1.8936501437e+02  1.5215729002e+02  2.599592e-13 9.
       -5     1     4     0     0   103  3.3159094221e+00 -2.2615179863e+01 -4.8811381293e+00  2.3860157690e+01  4.8000000000e+00 0. 9.
      -11     1     5     0     0     0 -2.0954804557e+01 -1.5240767656e+01 -2.2591297295e+00  2.6009392538e+01  5.1100000000e-04 0. 9.
       12     1     5     0     0     0 -1.4122009788e+01  4.9729018531e+01  7.2779668004e+01  8.9270860415e+01  0.0000000000e+00 0. 9.
        3     1     7     0   104     0 -1.3787129913e+01 -2.8780317810e+01  3.3069696894e+01  4.5959182947e+01  5.0000000000e-01 0. 9.
       -4     1     7     0     0   104  5.4942078874e+01 -5.2283593662e+00 -1.3235185950e+02  1.4340583142e+02  1.5000000000e+00 0. 9.
#pdf   21   21  6.593079e-02  2.793982e-02  1.851539e+02  1.397412e+00  3.422729e+00
</event>
<event>
    12  9999  1.000000e+00  2.095573e+02  7.891946e-03  1.051396e-01
       21    -1     0     0   101   102  0.0000000000e+00  0.0000000000e+00  1.6093083521e+03  1.6093083521e+03  0.0000000000e+00 0. 9.
       21    -1     0     0   102   103  0.0000000000e+00  0.0000000000e+00 -3.0935040355e+01  3.0935040355e+01  0.0000000000e+00 0. 9.
        6     2     1     2   101     0 -2.7439122357e+01  1.1329177268e+02  5.0010452423e+02  5.4135795644e+02  1.7139419669e+02  2.028071e-14 9.
       -6     2     1     2     0   103  2.7439122357e+01 -1.1329177268e+02  1.0782687875e+03  1.0988854360e+03  1.7691153765e+02  4.548929e-14 9.
       24     2     3     0     0     0  3.6567079217e+01  1.1053219043e+02  3.0706254656e+02  3.3790610888e+02  7.9615416326e+01  1.359710e-13 9.
        5     1     3     0   101     0 -6.4006201574e+01  2.7595822525e+00  1.9304197767e+02  2.0345184756e+02  4.8000000000e+00 0. 9.
      -24     2     4     0     0     0  5.2113850966e+01 -6.8202817096e+01  3.7117608269e+02  3.8991083184e+02  8.3013822338e+01  3.128856e-14 9.
       -5     1     4     0     0   103 -2.4674728609e+01 -4.5088955582e+01  7.0709270483e+02  7.0897460418e+02  4.8000000000e+00 0. 9.
       -1     1     5     0     0   104  5.2047601282e+01  4.9901948074e+01  2.1348846835e+02  2.2533661984e+02  3.3000000000e-01 0. 9.
        2     1     5     0   104     0 -1.5480522065e+01  6.0630242352e+01  9.3574078210e+01  1.1256948905e+02  3.3000000000e-01 0. 9.
       11     1     7     0     0     0  5.0215263198e+00 -5.3177123962e+01  9.1909727188e+01  1.0630343452e+02  5.1100000000e-04 0. 9.
      -12     1     7     0     0     0  4.7092324647e+01 -1.5025693134e+01  2.7926635550e+02  2.8360739731e+02  0.0000000000e+00 0. 9.
#pdf   21   21  2.475859e-01  4.759237e-03  2.072774e+02  1.675014e-01  1.395828e+01
</event>
<event>
    12  9999  1.000000e+00  1.883014e+02  7.882299e-03  1.065143e-01
       21    -1     0     0   101   102  0.0000000000e+00  0.0000000000e+00  7.4766701139e+02  7.4766701139e+02  0.0000000000e+00 0. 9.
       21    -1     0     0   103   101  0.0000000000e+00  0.0000000000e+00 -5.2521629562e+01  5.2521629562e+01  0.0000000000e+00 0. 9.
        6     2     1     2   103     0 -7.6824602774e+01  1.0772817142e+01  2.2352022218e+02  2.9249332034e+02  1.7196796079e+02  1.387212e-14 9.
       -6     2     1     2     0   102  7.6824602774e+01 -1.0772817142e+01  4.7162515964e+02  5.0769532061e+02  1.7119046170e+02  2.194470e-13 9.
       24     2     3     0     0     0  1.7307848161e+01  2.1095107818e+01  6.2368143226e+01  1.0551604751e+02  8.0618148148e+01  5.293150e-14 9.
        5     1     3     0   103     0 -9.4132450935e+01 -1.0322290677e+01  1.6115207896e+02  1.8697727283e+02  4.8000000000e+00 0. 9.
      -24     2     4     0     0     0  2.9930985638e+01 -2.8995592084e+01  4.3523574019e+02  4.4541923609e+02  8.5038450591e+01  3.986553e-15 9.
       -5     1     4     0     0   102  4.6893617137e+01  1.8222774943e+01  3.6389419455e+01  6.2276084519e+01  4.8000000000e+00 0. 9.
      -15     1     5     0     0     0  3.4427164737e+01 -1.9393867469e+01  1.9439871493e+01  4.4072865351e+01  1.7768200000e+00  2.750595e-02 9.
       16     1     5     0     0     0 -1.7119316576e+01  4.0488975287e+01  4.2928271733e+01  6.1443182159e+01  0.0000000000e+00 0. 9.
        1     1     7     0   104     0  3.2736970648e+01  3.8527795309e+00  5.7746905644e+01  6.6493361839e+01  3.3000000000e-01 0. 9.
       -2     1     7     0     0   104 -2.8059850098e+00 -3.2848371615e+01  3.7748883454e+02  3.7892587425e+02  3.3000000000e-01 0. 9.
#pdf   21   21  1.150257e-01  8.080251e-03  1.879475e+02  6.761268e-01  9.524600e+00
</event>
<event>
    12  9999  1.000000e+00  2.046254e+02  7.889796e-03  1.054426e-01
        4    -1     0     0   101     0  0.0000000000e+00  0.0000000000e+00  1.0476397440e+02  1.0476397440e+02  0.0000000000e+00 0. 9.
       -4    -1     0     0     0   102  0.0000000000e+00  0.0000000000e+00 -4.5578064255e+02  4.5578064255e+02  0.0000000000e+00 0. 9.
        6     2     1     2   101     0 -1.0567471297e+02  3.2382761733e+01 -7.7510651162e+01  2.1923058966e+02  1.7273784235e+02  1.263459e-13 9.
       -6     2     1     2     0   102  1.0567471297e+02 -3.2382761733e+01 -2.7350601699e+02  3.4131402729e+02  1.7167974742e+02  3.693538e-14 9.
       24     2     3     0     0     0 -3.9499169835e+01  4.5801218123e+01 -1.0570153056e+02  1.4590240161e+02  8.0353974601e+01  1.364668e-14 9.
        5     1     3     0   101     0 -6.6175543139e+01 -1.3418456390e+01  2.8190879396e+01  7.3328188050e+01  4.8000000000e+00 0. 9.
      -24     2     4     0     0     0  4.3938836377e+01 -5.0875131705e+01 -2.5306219269e+02  2.7353293731e+02  7.9125811569e+01  1.211452e-13 9.
       -5     1     4     0     0   102  6.1735876597e+01  1.8492369972e+01 -2.0443824302e+01  6.7781089977e+01  4.8000000000e+00 0. 9.
      -13     1     5     0     0     0 -2.2081397312e+01 -1.1741121162e+01 -8.3330714576e-01  2.5022941438e+01  1.0566000000e-01  1.852192e+05 9.
       14     1     5     0     0     0 -1.7417772524e+01  5.7542339285e+01 -1.0486822341e+02  1.2087946017e+02  0.0000000000e+00 0. 9.
        1     1     7     0   103     0 -2.1028257072e+01 -6.3028732150e-01 -4.0146815697e+01  4.5326157660e+01  3.3000000000e-01 0. 9.
       -2     1     7     0     0   103  6.4967093449e+01 -5.0244844383e+01 -2.1291537699e+02  2.2820677965e+02  3.3000000000e-01 0. 9.
#pdf    4   -4  1.611753e-02  7.012010e-02  2.041806e+02  2.263454e-01  5.613152e-02
</event>
<event>
    12  9999  1.000000e+00  2.138705e+02  7.893786e-03  1.048818e-01
       21    -1     0     0   101   102  0.0000000000e+00  0.0000000000e+00  2.1759633903e+02  2.1759633903e+02  0.0000000000e+00 0. 9.
       21    -1     0     0   102   103  0.0000000000e+00  0.0000000000e+00 -3.1380656942e+02  3.1380656942e+02  0.0000000000e+00 0. 9.
        6     2     1     2   101     0 -5.1574431823e+01 -1.1718153528e+02  1.0458836962e+02  2.3790217474e+02  1.7107683495e+02  5.469529e-14 9.
       -6     2     1     2     0   103  5.1574431823e+01  1.1718153528e+02 -2.0079860001e+02  2.9350073372e+02  1.7155514769e+02  3.942674e-13 9.
       24     2     3     0     0     0 -9.6106644429e+01 -1.0700615157e+02  9.7517465172e+01  1.9142966584e+02  8.0304778017e+01  2.114928e-13 9.
        5     1     3     0   101     0  4.4532212607e+01 -1.0175383708e+01  7.0709044508e+00  4.6472508895e+01  4.8000000000e+00 0. 9.
      -24     2     4     0     0     0  9.2559470858e+01  5.4578601856e+01 -1.6036917422e+02  2.0831576340e+02  7.8301378131e+01  5.545758e-14 9.
       -5     1     4     0     0   103 -4.0985039035e+01  6.2602933424e+01 -4.0429425791e+01  8.5184970317e+01  4.8000000000e+00 0. 9.
       -3     1     5     0     0   104 -5.4096767130e+01 -1.7510984230e+01  6.8446989309e+00  5.7272983911e+01  5.0000000000e-01 0. 9.
        4     1     5     0   104     0 -4.2009877299e+01 -8.9495167343e+01  9.0672766241e+01  1.3415668193e+02  1.5000000000e+00 0. 9.
        3     1     7     0   105     0  3.4911834704e+01  5.9093159688e+01 -1.1837888293e+02  1.3683803436e+02  5.0000000000e-01 0. 9.
       -4     1     7     0     0   105  5.7647636153e+01 -4.5145578317e+00 -4.1990291286e+01  7.1477729041e+01  1.5000000000e+00 0. 9.
#pdf   21   21  3.347636e-02  4.827793e-02  2.136790e+02  2.864128e+00  1.966077e+00
</event>
<event>
    12  9999  1.000000e+00  1.998557e+02  7.887667e-03  1.057444e-01
       21    -1     0     0   101   102  0.0000000000e+00  0.0000000000e+00  8.8426776176e+02  8.8426776176e+02  0.0000000000e+00 0. 9.
       21    -1     0     0   103   101  0.0000000000e+00  0.0000000000e+00 -3.0127282354e+02  3.0127282354e+02  0.0000000000e+00 0. 9.
        6     2     1     2   103     0 -8.2268566985e+01  6.4274789372e+01 -2.5508159114e+02  3.2391116450e+02  1.7015422030e+02  5.953355e-14 9.
       -6     2     1     2     0   102  8.2268566985e+01 -6.4274789372e+01  8.3807652935e+02  8.6162942080e+02  1.7068574656e+02  1.547724e-13 9.
       24     2     3     0     0     0 -1.2217573236e+02  6.2208934215e+01 -2.0493740078e+02  2.5961241308e+02  8.1255188862e+01  8.906309e-14 9.
        5     1     3     0   103     0  3.9907165376e+01  2.0658551567e+00 -5.0144190366e+01  6.4298751413e+01  4.8000000000e+00 0. 9.
      -24     2     4     0     0     0  1.0558832364e+02 -9.3233813348e+01  6.7577213832e+02  6.9505153671e+02  8.1161676397e+01  1.219411e-14 9.
       -5     1     4     0     0   102 -2.3319756651e+01  2.8959023975e+01  1.6230439103e+02  1.6657788409e+02  4.8000000000e+00 0. 9.
       -1     1     5     0     0   104 -2.1674215736e+01 -1.9622744324e+01 -4.6359203743e+01  5.4809747255e+01  3.3000000000e-01 0. 9.
        2     1     5     0   104     0 -1.0050151663e+02  8.1831678540e+01 -1.5857819703e+02  2.0480266583e+02  3.3000000000e-01 0. 9.
        3     1     7     0   105     0  6.0091653805e+01 -9.1470640340e+01  5.6086410469e+02  5.7144262952e+02  5.0000000000e-01 0. 9.
       -4     1     7     0     0   105  4.5496669830e+01 -1.7631730077e+00  1.1490803363e+02  1.2360890719e+02  1.5000000000e+00 0. 9.
#pdf   21   21  1.360412e-01  4.634967e-02  1.996292e+02  5.216872e-01  2.062494e+00
</event>
<event>
    12  9999  1.000000e+00  2.139837e+02  7.893834e-03  1.048751e-01
       21    -1     0     0   101   102  0.0000000000e+00  0.0000000000e+00  1.6589875242e+02  1.6589875242e+02  0.0000000000e+00 0. 9.
       21    -1     0     0   103   101  0.0000000000e+00  0.0000000000e+00 -3.4134174093e+02  3.4134174093e+02  0.0000000000e+00 0. 9.
        6     2     1     2   103     0 -6.9072086917e+01 -1.0803326868e+02 -1.9867279845e+02  2.9197434737e+02  1.7127754770e+02  4.399262e-15 9.
       -6     2     1     2     0   102  6.9072086917e+01  1.0803326868e+02  2.3229809945e+01  2.1526614598e+02  1.7134103187e+02  9.258993e-14 9.
       24     2     3     0     0     0 -6.0104797063e+01 -6.6912117605e+01 -2.1469724596e+02  2.4668434549e+02  8.1660521509e+01  2.721507e-13 9.
        5     1     3     0   103     0 -8.9672898541e+00 -4.1121151071e+01  1.6024447510e+01  4.5290001885e+01  4.8000000000e+00 0. 9.
      -24     2     4     0     0     0  5.3780117736e+01  8.2232016463e+01 -4.9637238589e+01  1.3632188907e+02  8.0407688619e+01  8.253341e-14 9.
       -5     1     4     0     0   102  1.5291969181e+01  2.5801252213e+01  7.2867048535e+01  7.8944256912e+01  4.8000000000e+00 0. 9.
       -3     1     5     0     0   104 -5.9387572084e+01 -6.2200735315e+00 -9.0258752548e+01  1.0822414446e+02  5.0000000000e-01 0. 9.
        4     1     5     0   104     0 -7.1722497920e-01 -6.0692044074e+01 -1.2443849342e+02  1.3846020103e+02  1.5000000000e+00 0. 9.
        1     1     7     0   105     0 -4.2010741223e+00  5.4605520152e+01  6.1553560974e-01  5.4771339576e+01  3.3000000000e-01 0. 9.
       -2     1     7     0     0   105  5.7981191858e+01  2.7626496311e+01 -5.0252774199e+01  8.1550549492e+01  3.3000000000e-01 0. 9.
#pdf   21   21  2.552288e-02  5.251411e-02  2.139583e+02  3.704062e+00  1.793263e+00
</event>
<event>
    12  9999  1.000000e+00  2.125649e+02  7.893233e-03  1.049591e-01
        2    -1     0     0   101     0  0.0000000000e+00  0.0000000000e+00  1.1133471499e+03  1.1133471499e+03  0.0000000000e+00 0. 9.
       -2    -1     0     0     0   102  0.0000000000e+00  0.0000000000e+00 -4.0857353037e+01  4.0857353037e+01  0.0000000000e+00 0. 9.
        6     2     1     2   101     0  7.7516759363e+00  1.2866494189e+02  5.7607822329e+02  6.1311439465e+02  1.6561517392e+02  2.788931e-13 9.
       -6     2     1     2     0   102 -7.7516759363e+00 -1.2866494189e+02  4.9641157357e+02  5.4109010828e+02  1.7245086011e+02  7.086141e-15 9.
       24     2     3     0     0     0 -1.0541883086e+01  1.5728677656e+01  3.5154600690e+02  3.6106874348e+02  8.0171815175e+01  5.436882e-14 9.
        5     1     3     0   101     0  1.8293559022e+01  1.1293626423e+02  2.2453221638e+02  2.5204565117e+02  4.8000000000e+00 0. 9.
      -24     2     4     0     0     0 -5.3512492104e+01 -1.3788669299e+02  3.8209963655e+02  4.1752088907e+02  8.0294667624e+01  2.227242e-13 9.
       -5     1     4     0     0   102  4.5760816167e+01  9.2217510959e+00  1.1431193703e+02  1.2356921921e+02  4.8000000000e+00 0. 9.
       -1     1     5     0     0   103 -3.5785343084e+01  3.5319157341e+01  2.0448840278e+02  2.1057931861e+02  3.3000000000e-01 0. 9.
        2     1     5     0   103     0  2.5243459998e+01 -1.9590479685e+01  1.4705760412e+02  1.5048942487e+02  3.3000000000e-01 0. 9.
        1     1     7     0   104     0 -5.9376706710e+01 -4.9222733933e+01  1.4352417885e+02  1.6293486322e+02  3.3000000000e-01 0. 9.
       -2     1     7     0     0   104  5.8642146065e+00 -8.8663959053e+01  2.3857545769e+02  2.5458602586e+02  3.3000000000e-01 0. 9.
#pdf    2   -2  1.712842e-01  6.285747e-03  2.098646e+02  4.877802e-01  6.788248e-01
</event>
<event>
    12  9999  1.000000e+00  1.741435e+02  7.875263e-03  1.075423e-01
       21    -1     0     0   101   102  0.0000000000e+00  0.0000000000e+00  2.1116339140e+02  2.1116339140e+02  0.0000000000e+00 0. 9.
       21    -1     0     0   102   103  0.0000000000e+00  0.0000000000e+00 -1.7833220702e+02  1.7833220702e+02  0.0000000000e+00 0. 9.
        6     2     1     2   101     0  3.2496733664e+01 -8.9183946536e+00  1.0234941355e+02  2.0205312466e+02  1.7092245981e+02  7.783229e-14 9.
       -6     2     1     2     0   103 -3.2496733664e+01  8.9183946536e+00 -6.9518229170e+01  1.8744247375e+02  1.7078150168e+02  1.119731e-13 9.
       24     2     3     0     0     0 -2.4403144051e+01 -3.3598627493e+01  1.0599642660e+02  1.3973899559e+02  8.1039269665e+01  2.700031e-13 9.
        5     1     3     0   101     0  5.6899877715e+01  2.4680232840e+01 -3.6470130549e+00  6.2314129066e+01  4.8000000000e+00 0. 9.
      -24     2     4     0     0     0  1.0484615093e+01 -5.3713011294e+01 -4.0204887161e+01  1.0588021917e+02  8.1235294821e+01  1.225530e-15 9.
       -5     1     4     0     0   103 -4.2981348757e+01  6.2631405948e+01 -2.9313342009e+01  8.1562254577e+01  4.8000000000e+00 0. 9.
       -1     1     5     0     0   104 -7.4735180361e+00 -2.8698149151e+01 -2.5536958086e+00  2.9766885944e+01  3.3000000000e-01 0. 9.
        2     1     5     0   104     0 -1.6929626015e+01 -4.9004783421e+00  1.0855012241e+02  1.0997210965e+02  3.3000000000e-01 0. 9.
        3     1     7     0   105     0  2.8659738413e+01  1.0395880338e+01 -6.4413661605e+00  3.1164019829e+01  5.0000000000e-01 0. 9.
       -4     1     7     0     0   105 -1.8175123320e+01 -6.4108891633e+01 -3.3763521000e+01  7.4716199344e+01  1.5000000000e+00 0. 9.
#pdf   21   21  3.248668e-02  2.743572e-02  1.740744e+02  2.973664e+00  3.487441e+00
</event>
<event>
    12  9999  1.000000e+00  2.357618e+02  7.902601e-03  1.036662e-01
       21    -1     0     0   101   102  0.0000000000e+00  0.0000000000e+00  5.6778877035e+02  5.6778877035e+02  0.0000000000e+00 0. 9.
       21    -1     0     0   102   103  0.0000000000e+00  0.0000000000e+00 -2.9675678717e+02  2.9675678717e+02  0.0000000000e+00 0. 9.
        6     2     1     2   101     0  3.5341763982e+01 -1.5805754879e+02  4.8927234271e+02  5.4287389117e+02  1.7056789663e+02  4.214835e-13 9.
       -6     2     1     2     0   103 -3.5341763982e+01  1.5805754879e+02 -2.1824035953e+02  3.2167166636e+02  1.7208305379e+02  1.814862e-13 9.
       24     2     3     0     0     0  4.2762347467e+01 -1.6191222296e+02  4.9612850163e+02  5.3104297880e+02  8.8424933649e+01  3.891877e-14 9.
        5     1     3     0   101     0 -7.4205834851e+00  3.8546741777e+00 -6.8561589241e+00  1.1830912368e+01  4.8000000000e+00 0. 9.
      -24     2     4     0     0     0  7.5534008063e+00  1.6726625869e+02 -2.0298539200e+02  2.7497531174e+02  7.9832935200e+01  6.145818e-14 9.
       -5     1     4     0     0   103 -4.2895164788e+01 -9.2087099044e+00 -1.5254967533e+01  4.6696354620e+01  4.8000000000e+00 0. 9.
      -15     1     5     0     0     0 -9.6819451580e+00 -1.0430041923e+02  3.5131725673e+02  3.6660508655e+02  1.7768200000e+00  4.999119e-02 9.
       16     1     5     0     0     0  5.2444292625e+01 -5.7611803736e+01  1.4481124490e+02  1.6443789225e+02  0.0000000000e+00 0. 9.
       15     1     7     0     0     0  3.8055825729e+01  6.4258030431e+01 -5.8259576193e+01  9.4734764761e+01  1.7768200000e+00  2.445117e-02 9.
      -16     1     7     0     0     0 -3.0502424923e+01  1.0300822826e+02 -1.4472581580e+02  1.8024054698e+02  0.0000000000e+00 0. 9.
#pdf   21   21  8.735212e-02  4.565489e-02  2.352119e+02  9.644120e-01  2.075244e+00
</event>
<event>
    12  9999  1.000000e+00  1.782861e+02  7.877378e-03  1.072310e-01
        2    -1     0     0   101     0  0.0000000000e+00  0.0000000000e+00  2.1503251386e+03  2.1503251386e+03  0.0000000000e+00 0. 9.
       -2    -1     0     0     0   102  0.0000000000e+00  0.0000000000e+00 -2.3165661056e+01  2.3165661056e+01  0.0000000000e+00 0. 9.
        6     2     1     2   101     0  4.7773945571e+01 -1.8305698644e+01  1.7116882403e+03  1.7207968238e+03  1.6925610266e+02  1.487380e-13 9.
       -6     2     1     2     0   102 -4.7773945571e+01  1.8305698644e+01  4.1547123726e+02  4.5269397588e+02  1.7233118794e+02  3.546175e-13 9.
       24     2     3     0     0     0  1.2539926606e+01  1.7564016980e+01  1.5290862111e+03  1.5313380851e+03  8.0161995321e+01  7.307440e-14 9.
        5     1     3     0   101     0  3.5234018965e+01 -3.5869715624e+01  1.8260202926e+02  1.8945873873e+02  4.8000000000e+00 0. 9.
      -24     2     4     0     0     0 -6.5895540315e+00  6.0180930790e+01  3.5193095867e+02  3.6603316481e+02  8.0372329907e+01  3.723513e-14 9.
       -5     1     4     0     0   102 -4.1184391539e+01 -4.1875232145e+01  6.3540278585e+01  8.6660811076e+01  4.8000000000e+00 0. 9.
       -3     1     5     0     0   103 -1.3937220415e+01  2.5580307074e+01  2.1559316222e+02  2.1755288970e+02  5.0000000000e-01 0. 9.
        4     1     5     0   103     0  2.6477147021e+01 -8.0162900944e+00  1.3134930488e+03  1.3137851954e+03  1.5000000000e+00 0. 9.
        1     1     7     0   104     0 -7.4818290003e+00  3.6442083820e+01  4.5911928767e+01  5.9093293540e+01  3.3000000000e-01 0. 9.
       -2     1     7     0     0   104  8.9227496879e-01  2.3738846970e+01  3.0601902990e+02  3.0693987127e+02  3.3000000000e-01 0. 9.
#pdf    2   -2  3.308193e-01  3.563948e-03  1.768193e+02  2.686367e-01  8.945246e-01
</event>
<event>
    12  9999  1.000000e+00  2.437505e+02  7.905620e-03  1.032570e-01
       21    -1     0     0   101   102  0.0000000000e+00  0.0000000000e+00  1.0600114223e+03  1.0600114223e+03  0.0000000000e+00 0. 9.
       21    -1     0     0   102   103  0.0000000000e+00  0.0000000000e+00 -7.2770642187e+01  7.2770642187e+01  0.0000000000e+00 0. 9.
        6     2     1     2   101     0 -3.7187226839e+01  1.7180055110e+02  7.6133523571e+02  7.9868232617e+02  1.6542006470e+02  1.356285e-13 9.
       -6     2     1     2     0   103  3.7187226839e+01 -1.7180055110e+02  2.2590554442e+02  3.3409973833e+02  1.7231076855e+02  2.904371e-13 9.
       24     2     3     0     0     0 -3.5869242077e+00  5.2316115950e+01  5.0075328993e+02  5.1001036521e+02  8.1282674847e+01  1.381330e-13 9.
        5     1     3     0   101     0 -3.3600302631e+01  1.1948443515e+02  2.6058194578e+02  2.8867196096e+02  4.8000000000e+00 0. 9.
      -24     2     4     0     0     0 -7.5499734256e+00 -1.8289605872e+02  1.8909043725e+02  2.7491427143e+02  7.9465041256e+01  3.575228e-14 9.
       -5     1     4     0     0   103  4.4737200264e+01  1.1095507624e+01  3.6815107166e+01  5.9185466903e+01  4.8000000000e+00 0. 9.
      -13     1     5     0     0     0  2.0601507194e+01 -1.3326716278e+01  8.7395764217e+01  9.0774744464e+01  1.0566000000e-01  2.064874e+06 9.
       14     1     5     0     0     0 -2.4188431402e+01  6.5642832228e+01  4.1335752572e+02  4.1923562075e+02  0.0000000000e+00 0. 9.
        1     1     7     0   104     0 -4.2896907751e+01 -8.3304959658e+01  9.4643468185e+01  1.3318166529e+02  3.3000000000e-01 0. 9.
       -2     1     7     0     0   104  3.5346934325e+01 -9.9591099061e+01  9.4446969067e+01  1.4173260614e+02  3.3000000000e-01 0. 9.
#pdf   21   21  1.630787e-01  1.119548e-02  2.413755e+02  3.770261e-01  7.442622e+00
</event>
<event>
    12  9999  1.000000e+00  2.040756e+02  7.889553e-03  1.054769e-01
       21    -1     0     0   101   102  0.0000000000e+00  0.0000000000e+00  7.5346356582e+01  7.5346356582e+01  0.0000000000e+00 0. 9.
       21    -1     0     0   103   101  0.0000000000e+00  0.0000000000e+00 -6.4599431624e+02  6.4599431624e+02  0.0000000000e+00 0. 9.
        6     2     1     2   103     0  7.6102468472e+01  7.8727389966e+01 -4.2191044130e+02  4.6851124783e+02  1.7176955849e+02  1.363912e-13 9.
       -6     2     1     2     0   102 -7.6102468472e+01 -7.8727389966e+01 -1.4873751836e+02  2.5282942500e+02  1.7265654097e+02  3.910799e-15 9.
       24     2     3     0     0     0  5.3620637667e+01  8.6010187862e+01 -4.2484488859e+02  4.4421880368e+02  8.1020003628e+01  3.522581e-13 9.
        5     1     3     0   103     0  2.2481830805e+01 -7.2827978964e+00  2.9344472873e+00  2.4292444143e+01  4.8000000000e+00 0. 9.
      -24     2     4     0     0     0 -9.0968047695e+01 -2.7416991294e+00 -6.8528077016e+01  1.4124356058e+02  8.3492175979e+01  1.790426e-13 9.
       -5     1     4     0     0   102  1.4865579223e+01 -7.5985690836e+01 -8.0209441345e+01  1.1158586442e+02  4.8000000000e+00 0. 9.
       -1     1     5     0     0   104  6.4031401258e+01  4.0165579555e+01 -3.2758470059e+02  3.3619211634e+02  3.3000000000e-01 0. 9.
        2     1     5     0   104     0 -1.0410763591e+01  4.5844608307e+01 -9.7260187994e+01  1.0802668734e+02  3.3000000000e-01 0. 9.
        3     1     7     0   105     0 -2.4668533746e+01 -3.7287412668e+01 -4.3526997282e+01  6.2399817252e+01  5.0000000000e-01 0. 9.
       -4     1     7     0     0   105 -6.6299513949e+01  3.4545713539e+01 -2.5001079733e+01  7.8843743326e+01  1.5000000000e+00 0. 9.
#pdf   21   21  1.159175e-02  9.938374e-02  2.037017e+02  7.238354e+00  8.231398e-01
</event>
<event>
    12  9999  1.000000e+00  1.792772e+02  7.877877e-03  1.071578e-01
       21    -1     0     0   101   102  0.0000000000e+00  0.0000000000e+00  1.3134906418e+03  1.3134906418e+03  0.0000000000e+00 0. 9.
       21    -1     0     0   103   101  0.0000000000e+00  0.0000000000e+00 -5.7314743514e+01  5.7314743514e+01  0.0000000000e+00 0. 9.
        6     2     1     2   103     0  3.1305105371e+01 -5.3282979277e+01  1.0256147125e+02  2.0262102967e+02  1.6345439969e+02  2.254645e-14 9.
       -6     2     1     2     0   102 -3.1305105371e+01  5.3282979277e+01  1.1536144270e+03  1.1681843556e+03  1.7323208998e+02  2.778323e-13 9.
       24     2     3     0     0     0  9.0769230067e+00 -9.6035043734e+01  8.9043655675e+01  1.5234576294e+02  7.7300315103e+01  1.537002e-13 9.
        5     1     3     0   103     0  2.2228182365e+01  4.2752064457e+01  1.3517815576e+01  5.0275266727e+01  4.8000000000e+00 0. 9.
      -24     2     4     0     0     0 -1.0294661597e+01 -1.1188227736e+01  9.3437507140e+02  9.3864806148e+02  8.8160380868e+01  1.542962e-13 9.
       -5     1     4     0     0   102 -2.1010443774e+01  6.4471207013e+01  2.1923935561e+02  2.2953629415e+02  4.8000000000e+00 0. 9.
      -11     1     5     0     0     0 -1.9973888270e+01 -4.3362282408e+01  7.7606276062e+01  9.1115189912e+01  5.1100000000e-04 0. 9.
       12     1     5     0     0     0  2.9050811276e+01 -5.2672761326e+01  1.1437379613e+01  6.1230573033e+01  0.0000000000e+00 0. 9.
       13     1     7     0     0     0 -4.4056458574e+01  7.5078172902e+00  3.2586547360e+02  3.2891588121e+02  1.0566000000e-01  1.006376e+06 9.
      -14     1     7     0     0     0  3.3761796977e+01 -1.8696045026e+01  6.0850959780e+02  6.0973218027e+02  0.0000000000e+00 0. 9.
#pdf   21   21  2.020755e-01  8.817653e-03  1.747467e+02  2.676958e-01  8.910896e+00
</event>
<event>
    12  9999  1.000000e+00  2.015114e+02  7.888412e-03  1.056386e-01
       21    -1     0     0   101   102  0.0000000000e+00  0.0000000000e+00  1.7322633746e+02  1.7322633746e+02  0.0000000000e+00 0. 9.
       21    -1     0     0   102   103  0.0000000000e+00  0.0000000000e+00 -3.8943378359e+02  3.8943378359e+02  0.0000000000e+00 0. 9.
        6     2     1     2   101     0  1.0074682650e+02  2.7799047411e+01  6.9311000546e+01  2.1333896506e+02  1.7258849652e+02  5.588795e-13 9.
       -6     2     1     2     0   103 -1.0074682650e+02 -2.7799047411e+01 -2.8551844667e+02  3.4932115599e+02  1.7199353636e+02  1.945727e-13 9.
       24     2     3     0     0     0  7.2057584364e+01 -4.8252463959e+01  5.0912556911e+01  1.2986173629e+02  8.2166820296e+01  2.869811e-13 9.
        5     1     3     0   101     0  2.8689242133e+01  7.6051511369e+01  1.8398443635e+01  8.3477228775e+01  4.8000000000e+00 0. 9.
      -24     2     4     0     0     0 -2.4283626353e+01  2.9865309028e+01 -6.8806876889e+01  1.1234279526e+02  8.0030532590e+01  1.228481e-13 9.
       -5     1     4     0     0   103 -7.6463200144e+01 -5.7664356439e+01 -2.1671156978e+02  2.3697836074e+02  4.8000000000e+00 0. 9.
       -3     1     5     0     0   104 -7.6659600013e+00  1.2118931769e+01  2.1067453640e+01  2.5489665608e+01  5.0000000000e-01 0. 9.
        4     1     5     0   104     0  7.9723544365e+01 -6.0371395728e+01  2.9845103271e+01  1.0437207068e+02  1.5000000000e+00 0. 9.
       11     1     7     0     0     0  1.4368265321e+01 -1.8623212012e+01 -6.4218654179e+00  2.4382605063e+01  5.1100000000e-04 0. 9.
      -12     1     7     0     0     0 -3.8651891674e+01  4.8488521040e+01 -6.2385011471e+01  8.7960190193e+01  0.0000000000e+00 0. 9.
#pdf   21   21  2.665021e-02  5.991289e-02  2.012573e+02  3.566596e+00  1.552408e+00
</event>
<event>
    12  9999  1.000000e+00  1.910708e+02  7.883614e-03  1.063245e-01
       21    -1     0     0   101   102  0.0000000000e+00  0.0000000000e+00  2.8166951925e+02  2.8166951925e+02  0.0000000000e+00 0. 9.
       21    -1     0     0   103   101  0.0000000000e+00  0.0000000000e+00 -1.7155988920e+02  1.7155988920e+02  0.0000000000e+00 0. 9.
        6     2     1     2   103     0  7.8834848866e+01  3.0044353870e+01 -5.7170718336e+01  1.9867317136e+02  1.7054307781e+02  7.457345e-15 9.
       -6     2     1     2     0   102 -7.8834848866e+01 -3.0044353870e+01  1.6728034839e+02  2.5455623709e+02  1.7233271974e+02  6.381533e-14 9.
       24     2     3     0     0     0  1.8964696628e+01  7.6269566571e+01 -5.0020367043e+01  1.2254582449e+02  7.9616175978e+01  3.309353e-14 9.
        5     1     3     0   103     0  5.9870152239e+01 -4.6225212701e+01 -7.1503512933e+00  7.6127346873e+01  4.8000000000e+00 0. 9.
      -24     2     4     0     0     0 -6.0935866907e+01  3.5352188672e+01  4.1949475625e+01  1.1198012058e+02  7.6268157060e+01  1.557414e-14 9.
       -5     1     4     0     0   102 -1.7898981959e+01 -6.5396542542e+01  1.2533087276e+02  1.4257611651e+02  4.8000000000e+00 0. 9.
      -15     1     5     0     0     0 -2.6352439613e+01  1.1146328264e+01 -2.8309434165e+01  4.0289860504e+01  1.7768200000e+00  6.172365e-02 9.
       16     1     5     0     0     0  4.5317136241e+01  6.5123238307e+01 -2.1710932878e+01  8.2255963985e+01  0.0000000000e+00 0. 9.
        3     1     7     0   104     0 -3.4337106842e+00  7.8499272938e+00 -2.0813292334e+01  2.2513437440e+01  5.0000000000e-01 0. 9.
       -4     1     7     0     0   104 -5.7502156223e+01  2.7502261378e+01  6.2762767959e+01  8.9466683145e+01  1.5000000000e+00 0. 9.
#pdf   21   21  4.333377e-02  2.639383e-02  1.902696e+02  2.220000e+00  3.604867e+00
</event>
<event>
    12  9999  1.000000e+00  1.722305e+02  7.874270e-03  1.076892e-01
       21    -1     0     0   101   102  0.0000000000e+00  0.0000000000e+00  7.4427939129e+01  7.4427939129e+01  0.0000000000e+00 0. 9.
       21    -1     0     0   102   103  0.0000000000e+00  0.0000000000e+00 -8.5874474356e+02  8.5874474356e+02  0.0000000000e+00 0. 9.
        6     2     1     2   101     0 -1.7825435361e+01  1.8128283167e+01 -5.0038159004e+01  1.7884417041e+02  1.6980883115e+02  1.083375e-13 9.
       -6     2     1     2     0   103  1.7825435361e+01 -1.8128283167e+01 -7.3427864543e+02  7.5432851228e+02  1.7088005884e+02  3.513412e-13 9.
       24     2     3     0     0     0 -7.3169029010e+01  2.9715173626e+01 -4.3102657722e+01  1.2167503043e+02  8.1916271746e+01  2.123473e-13 9.
        5     1     3     0   101     0  5.5343593649e+01 -1.1586890459e+01 -6.9355012819e+00  5.7169139984e+01  4.8000000000e+00 0. 9.
      -24     2     4     0     0     0  2.5081818895e+01  5.3723098762e+01 -3.5786077495e+02  3.7101567737e+02  7.7929645385e+01  6.464815e-14 9.
       -5     1     4     0     0   103 -7.2563835339e+00 -7.1851381929e+01 -3.7641787048e+02  3.8331283491e+02  4.8000000000e+00 0. 9.
      -11     1     5     0     0     0 -5.2495646464e+01  5.8271945059e+01 -2.7370281055e+01  8.3069517658e+01  5.1100000000e-04 0. 9.
       12     1     5     0     0     0 -2.0673382547e+01 -2.8556771433e+01 -1.5732376667e+01  3.8605512770e+01  0.0000000000e+00 0. 9.
        1     1     7     0   104     0 -2.4157597266e+01  3.8730403251e+00 -1.4125814813e+02  1.4336165198e+02  3.3000000000e-01 0. 9.
       -2     1     7     0     0   104  4.9239416161e+01  4.9850058437e+01 -2.1660262682e+02  2.2765402539e+02  3.3000000000e-01 0. 9.
#pdf   21   21  1.145045e-02  1.321146e-01  1.717015e+02  7.298443e+00  5.563462e-01
</event>
<event>
    12  9999  1.000000e+00  2.285788e+02  7.899800e-03  1.040490e-01
       21    -1     0     0   101   102  0.0000000000e+00  0.0000000000e+00  7.4847268954e+02  7.4847268954e+02  0.0000000000e+00 0. 9.
       21    -1     0     0   102   103  0.0000000000e+00  0.0000000000e+00 -7.7445426322e+01  7.7445426322e+01  0.0000000000e+00 0. 9.
        6     2     1     2   101     0 -7.8728143396e+01 -1.2946563302e+02  4.6532023551e+02  5.1846860781e+02  1.7125216791e+02  1.466454e-13 9.
       -6     2     1     2     0   103  7.8728143396e+01  1.2946563302e+02  2.0570702771e+02  3.0744950805e+02  1.7102733131e+02  1.232098e-13 9.
       24     2     3     0     0     0 -1.9517987836e+01  1.3763174867e+00  2.1795101838e+02  2.3239164594e+02  7.8232886865e+01  1.442309e-13 9.
        5     1     3     0   101     0 -5.9210155561e+01 -1.3084195051e+02  2.4736921713e+02  2.8607696188e+02  4.8000000000e+00 0. 9.
      -24     2     4     0     0     0 -1.0636579333e+01  5.4501590816e+01  1.4881155504e+02  1.7758112813e+02  7.9414217461e+01  3.109191e-15 9.
       -5     1     4     0     0   103  8.9364722729e+01  7.4964042206e+01  5.6895472672e+01  1.2986837992e+02  4.8000000000e+00 0. 9.
      -11     1     5     0     0     0 -4.7660803234e+01 -6.2186395072e+00  1.0086583246e+02  1.1173244739e+02  5.1100000000e-04 0. 9.
       12     1     5     0     0     0  2.8142815399e+01  7.5949569940e+00  1.1708518592e+02  1.2065919854e+02  0.0000000000e+00 0. 9.
        3     1     7     0   104     0  4.4343567866e+00 -1.6515611487e+01  7.4491647306e+00  1.8659287181e+01  5.0000000000e-01 0. 9.
       -4     1     7     0     0   104 -1.5070936119e+01  7.1017202303e+01  1.4136239030e+02  1.5892184095e+02  1.5000000000e+00 0. 9.
#pdf   21   21  1.151496e-01  1.191468e-02  2.284947e+02  6.599358e-01  7.083861e+00
</event>
<event>
    12  9999  1.000000e+00  2.761065e+02  7.916931e-03  1.017552e-01
       21    -1     0     0   101   102  0.0000000000e+00  0.0000000000e+00  5.3409329509e+02  5.3409329509e+02  0.0000000000e+00 0. 9.
       21    -1     0     0   102   103  0.0000000000e+00  0.0000000000e+00 -1.4401942447e+02  1.4401942447e+02  0.0000000000e+00 0. 9.
        6     2     1     2   101     0 -1.6325468985e+02 -1.4273493709e+02  2.2699454975e+02  3.5739372033e+02  1.7081683083e+02  2.021689e-14 9.
       -6     2     1     2     0   103  1.6325468985e+02  1.4273493709e+02  1.6307932087e+02  3.2071899922e+02  1.7099840801e+02  1.288457e-13 9.
       24     2     3     0     0     0 -1.0057078087e+02 -1.0603104655e+02  2.3155604052e+02  2.8445336646e+02  7.7061358592e+01  1.214251e-13 9.
        5     1     3     0   101     0 -6.2683908979e+01 -3.6703890538e+01 -4.5614907746e+00  7.2940353876e+01  4.8000000000e+00 0. 9.
      -24     2     4     0     0     0  1.3083787502e+02  4.1647077301e+01  1.3955657130e+02  2.1187982876e+02  8.1018495746e+01  4.577966e-15 9.
       -5     1     4     0     0   103  3.2416814829e+01  1.0108785979e+02  2.3522749565e+01  1.0883917046e+02  4.8000000000e+00 0. 9.
      -11     1     5     0     0     0 -7.0603326104e+01 -1.9035161553e+01  1.0684834357e+02  1.2947484526e+02  5.1100000000e-04 0. 9.
       12     1     5     0     0     0 -2.9967454768e+01 -8.6995884995e+01  1.2470769695e+02  1.5497852119e+02  0.0000000000e+00 0. 9.
        1     1     7     0   104     0  8.3130227745e+01  3.6408558796e+01  1.3633148476e+02  1.6377606832e+02  3.3000000000e-01 0. 9.
       -2     1     7     0     0   104  4.7707647277e+01  5.2385185043e+00  3.2250865437e+00  4.8103760436e+01  3.3000000000e-01 0. 9.
#pdf   21   21  8.216820e-02  2.215683e-02  2.760503e+02  1.028964e+00  4.181340e+00
</event>
<event>
    12  9999  1.000000e+00  2.896942e+02  7.921300e-03  1.011882e-01
        2    -1     0     0   101     0  0.0000000000e+00  0.0000000000e+00  1.3598153616e+03  1.3598153616e+03  0.0000000000e+00 0. 9.
       -2    -1     0     0     0   102  0.0000000000e+00  0.0000000000e+00 -6.3558271692e+01  6.3558271692e+01  0.0000000000e+00 0. 9.
        6     2     1     2   101     0  2.3321556802e+02 -1.6205552689e+01  7.6958103271e+02  8.2234818707e+02  1.7131682280e+02  2.058174e-13 9.
       -6     2     1     2     0   102 -2.3321556802e+02  1.6205552689e+01  5.2667605721e+02  6.0102544623e+02  1.7085607004e+02  3.306331e-14 9.
       24     2     3     0     0     0  1.9828536992e+02 -6.9368524285e+01  6.3046282445e+02  6.6930134406e+02  7.9698406881e+01  2.214342e-14 9.
        5     1     3     0   101     0  3.4930198105e+01  5.3162971595e+01  1.3911820826e+02  1.5304684302e+02  4.8000000000e+00 0. 9.
      -24     2     4     0     0     0 -1.4105052937e+02  4.4766010802e+01  2.5776934883e+02  3.1529138818e+02  1.0518733149e+02  2.116861e-13 9.
       -5     1     4     0     0   102 -9.2165038651e+01 -2.8560458113e+01  2.6890670839e+02  2.8573405805e+02  4.8000000000e+00 0. 9.
       -1     1     5     0     0   103  1.3499926791e+02 -8.0033059848e+01  3.8926979441e+02  4.1971558792e+02  3.3000000000e-01 0. 9.
        2     1     5     0   103     0  6.3286102010e+01  1.0664535563e+01  2.4119303003e+02  2.4958575613e+02  3.3000000000e-01 0. 9.
        3     1     7     0   104     0 -6.9332827059e+00  6.4010818387e-01  1.1247077305e+02  1.1268719953e+02  5.0000000000e-01 0. 9.
       -4     1     7     0     0   104 -1.3411724666e+02  4.4125902618e+01  1.4529857578e+02  2.0260418865e+02  1.5000000000e+00 0. 9.
#pdf    2   -2  2.092024e-01  9.778196e-03  2.895581e+02  4.244194e-01  5.392192e-01
</event>
<event>
    12  9999  1.000000e+00  2.310250e+02  7.900764e-03  1.039170e-01
       21    -1     0     0   101   102  0.0000000000e+00  0.0000000000e+00  1.2589085440e+03  1.2589085440e+03  0.0000000000e+00 0. 9.
       21    -1     0     0   102   103  0.0000000000e+00  0.0000000000e+00 -6.1647363832e+01  6.1647363832e+01  0.0000000000e+00 0. 9.
        6     2     1     2   101     0  2.5932039951e+01 -1.5415286553e+02  9.6801518163e+02  9.9525443992e+02  1.7041840182e+02  2.634816e-13 9.
       -6     2     1     2     0   103 -2.5932039951e+01  1.5415286553e+02  2.2924599857e+02  3.2530146794e+02  1.6979911819e+02  3.998918e-14 9.
       24     2     3     0     0     0  3.2260701087e+01 -1.1685733262e+01  3.4851969112e+02  3.5953859264e+02  8.1392354077e+01  4.430854e-14 9.
        5     1     3     0   101     0 -6.3286611355e+00 -1.4246713226e+02  6.1949549051e+02  6.3571584728e+02  4.8000000000e+00 0. 9.
      -24     2     4     0     0     0 -6.2765722145e+01  6.8671319174e+01  7.1462164080e+01  1.4204592686e+02  8.0093186279e+01  1.292074e-14 9.
       -5     1     4     0     0   103  3.6833682194e+01  8.5481546353e+01  1.5778383449e+02  1.8325554108e+02  4.8000000000e+00 0. 9.
      -11     1     5     0     0     0  2.2055493230e+01  2.3240289434e+01  5.4075925447e+01  6.2855083707e+01  5.1100000000e-04 0. 9.
       12     1     5     0     0     0  1.0205207856e+01 -3.4926022696e+01  2.9444376567e+02  2.9668350893e+02  0.0000000000e+00 0. 9.
        3     1     7     0   104     0 -3.4527627376e+01  5.1634700641e+01 -1.3148062355e+00  6.2131136139e+01  5.0000000000e-01 0. 9.
       -4     1     7     0     0   104 -2.8238094769e+01  1.7036618533e+01  7.2776970316e+01  7.9914790718e+01  1.5000000000e+00 0. 9.
#pdf   21   21  1.936782e-01  9.484210e-03  2.307971e+02  2.770907e-01  8.466257e+00
</event>
<event>
    12  9999  1.000000e+00  2.030576e+02  7.889101e-03  1.055408e-01
       21    -1     0     0   101   102  0.0000000000e+00  0.0000000000e+00  1.3223203388e+03  1.3223203388e+03  0.0000000000e+00 0. 9.
       21    -1     0     0   102   103  0.0000000000e+00  0.0000000000e+00 -3.5341707111e+01  3.5341707111e+01  0.0000000000e+00 0. 9.
        6     2     1     2   101     0 -5.9453519596e+01 -9.3200185316e+01  8.7787922547e+02  9.0117879380e+02  1.7096867650e+02  6.958944e-14 9.
       -6     2     1     2     0   103  5.9453519596e+01  9.3200185316e+01  4.0909940622e+02  4.5648325211e+02  1.6968688740e+02  1.732653e-13 9.
       24     2     3     0     0     0 -6.1778686680e+01 -9.8530799615e+01  8.8155269445e+02  8.9279093203e+02  8.0097257321e+01  6.741262e-14 9.
        5     1     3     0   101     0  2.3251670844e+00  5.3306142995e+00 -3.6734689730e+00  8.3878617702e+00  4.8000000000e+00 0. 9.
      -24     2     4     0     0     0 -1.8076899052e+01  8.1559369296e+01  1.8316430386e+02  2.1728420343e+02  8.1759145372e+01  1.333479e-13 9.
       -5     1     4     0     0   103  7.7530418647e+01  1.1640816020e+01  2.2593510236e+02  2.3919904868e+02  4.8000000000e+00 0. 9.
       -1     1     5     0     0   104  1.3785211847e+01 -4.8883633319e+01  3.2058755661e+02  3.2458609340e+02  3.3000000000e-01 0. 9.
        2     1     5     0   104     0 -7.5563898527e+01 -4.9647166296e+01  5.6096513783e+02  5.6820483863e+02  3.3000000000e-01 0. 9.
        3     1     7     0   105     0  1.9738570863e+01  3.1476155340e+00  7.7372387040e+00  2.1439065419e+01  5.0000000000e-01 0. 9.
       -4     1     7     0     0   105 -3.7815469915e+01  7.8411753762e+01  1.7542706516e+02  1.9584513801e+02  1.5000000000e+00 0. 9.
#pdf   21   21  2.034339e-01  5.437186e-03  2.025207e+02  2.574192e-01  1.270659e+01
</event>
<event>
    12  9999  1.000000e+00  2.132029e+02  7.893504e-03  1.049213e-01
       21    -1     0     0   101   102  0.0000000000e+00  0.0000000000e+00  2.5041472565e+02  2.5041472565e+02  0.0000000000e+00 0. 9.
       21    -1     0     0   103   101  0.0000000000e+00  0.0000000000e+00 -4.2809999619e+02  4.2809999619e+02  0.0000000000e+00 0. 9.
        6     2     1     2   103     0  1.1988791031e+02  3.8399089169e+01 -3.4642759093e+02  4.0710835610e+02  1.7285119832e+02  1.473094e-13 9.
       -6     2     1     2     0   102 -1.1988791031e+02 -3.8399089169e+01  1.6874232039e+02  2.7140636575e+02  1.7128877252e+02  1.061464e-13 9.
       24     2     3     0     0     0  1.7671819305e+01  5.4663967065e+01 -1.0483016693e+02  1.4422999869e+02  8.0699976021e+01  2.763903e-14 9.
        5     1     3     0   103     0  1.0221609100e+02 -1.6264877896e+01 -2.4159742400e+02  2.6287835741e+02  4.8000000000e+00 0. 9.
      -24     2     4     0     0     0 -8.2249549453e+01 -2.5791640985e+01  2.1291677476e+01  1.1863095525e+02  7.8675096972e+01  8.020983e-14 9.
       -5     1     4     0     0   102 -3.7638360857e+01 -1.2607448184e+01  1.4745064291e+02  1.5277541050e+02  4.8000000000e+00 0. 9.
       -3     1     5     0     0   104 -2.4415148186e+01  3.9206507216e+00 -5.8859978260e+01  6.3845266103e+01  5.0000000000e-01 0. 9.
        4     1     5     0   104     0  4.2086967491e+01  5.0743316343e+01 -4.5970188668e+01  8.0384732582e+01  1.5000000000e+00 0. 9.
        1     1     7     0   105     0 -5.3251364146e+01 -4.1898196973e+01  4.1815178449e+01  7.9622765223e+01  3.3000000000e-01 0. 9.
       -2     1     7     0     0   105 -2.8998185306e+01  1.6106555988e+01 -2.0523500973e+01  3.9008190025e+01  3.3000000000e-01 0. 9.
#pdf   21   21  3.852534e-02  6.586154e-02  2.125734e+02  2.490690e+00  1.384097e+00
</event>
<event>
    12  9999  1.000000e+00  2.371680e+02  7.903140e-03  1.035929e-01
       21    -1     0     0   101   102  0.0000000000e+00  0.0000000000e+00  2.0831523368e+02  2.0831523368e+02  0.0000000000e+00 0. 9.
       21    -1     0     0   103   101  0.0000000000e+00  0.0000000000e+00 -2.7033956592e+02  2.7033956592e+02  0.0000000000e+00 0. 9.
        6     2     1     2   103     0 -1.5928744263e+02  3.9819461183e+01 -2.2760170158e+01  2.3837172432e+02  1.7130374994e+02  4.645152e-14 9.
       -6     2     1     2     0   102  1.5928744263e+02 -3.9819461183e+01 -3.9264162081e+01  2.4028307528e+02  1.7098597303e+02  1.133919e-13 9.
       24     2     3     0     0     0 -4.6601977255e+01  3.2872896293e+00 -6.4340789233e+01  1.1273494011e+02  7.9917951704e+01  1.182448e-13 9.
        5     1     3     0   103     0 -1.1268546538e+02  3.6532171553e+01  4.1580619075e+01  1.2563678422e+02  4.8000000000e+00 0. 9.
      -24     2     4     0     0     0  5.6442585863e+01 -7.5511163399e+01 -4.3938130392e+01  1.3121498576e+02  7.9994449116e+01  2.500959e-13 9.
       -5     1     4     0     0   102  1.0284485677e+02  3.5691702216e+01  4.6739683115e+00  1.0906808952e+02  4.8000000000e+00 0. 9.
       -1     1     5     0     0   104  1.5922766235e+01  1.8392939490e+00  7.3166473368e+00  1.7622704533e+01  3.3000000000e-01 0. 9.
        2     1     5     0   104     0 -6.2524743490e+01  1.4479956803e+00 -7.1657436569e+01  9.5112235573e+01  3.3000000000e-01 0. 9.
        3     1     7     0   105     0  5.1786564615e+01 -5.2400331554e+01 -6.5984139957e+01  9.8902981489e+01  5.0000000000e-01 0. 9.
       -4     1     7     0     0   105  4.6560212480e+00 -2.3110831844e+01  2.2046009565e+01  3.2312004273e+01  1.5000000000e+00 0. 9.
#pdf   21   21  3.204850e-02  4.159070e-02  2.370533e+02  2.974968e+00  2.288676e+00
</event>
<event>
    12  9999  1.000000e+00  2.820379e+02  7.918863e-03  1.015035e-01
       21    -1     0     0   101   102  0.0000000000e+00  0.0000000000e+00  3.7623223867e+02  3.7623223867e+02  0.0000000000e+00 0. 9.
       21    -1     0     0   103   101  0.0000000000e+00  0.0000000000e+00 -2.4086954888e+02  2.4086954888e+02  0.0000000000e+00 0. 9.
        6     2     1     2   103     0 -1.0479694786e+02  1.9787210797e+02  1.7541969710e+02  3.3159177555e+02  1.7042671179e+02  6.383670e-14 9.
       -6     2     1     2     0   102  1.0479694786e+02 -1.9787210797e+02 -4.0057007315e+01  2.8551001200e+02  1.7255616977e+02  2.357271e-14 9.
       24     2     3     0     0     0 -9.1713960014e+01  8.8319196817e+01  3.8278060248e+01  1.5551260736e+02  8.0667404598e+01  5.190081e-14 9.
        5     1     3     0   103     0 -1.3082987846e+01  1.0955291115e+02  1.3714163685e+02  1.7607916819e+02  4.8000000000e+00 0. 9.
      -24     2     4     0     0     0  7.3516500159e+00 -9.6942460198e+01 -6.7734968215e+01  1.4243139938e+02  7.9036638737e+01  1.705146e-14 9.
       -5     1     4     0     0   102  9.7445297844e+01 -1.0092964777e+02  2.7677960899e+01  1.4307861262e+02  4.8000000000e+00 0. 9.
       -3     1     5     0     0   104 -4.2035041685e+00  1.4393271260e+01 -2.1555896510e+01  2.6262946887e+01  5.0000000000e-01 0. 9.
        4     1     5     0   104     0 -8.7510455845e+01  7.3925925556e+01  5.9833956758e+01  1.2924966047e+02  1.5000000000e+00 0. 9.
        1     1     7     0   105     0 -2.5630769911e+01 -8.7196267945e+01 -4.8162695513e+01  1.0285854193e+02  3.3000000000e-01 0. 9.
       -2     1     7     0     0   105  3.2982419927e+01 -9.7461922526e+00 -1.9572272702e+01  3.9572857445e+01  3.3000000000e-01 0. 9.
#pdf   21   21  5.788188e-02  3.705685e-02  2.813912e+02  1.576196e+00  2.554350e+00
</event>
<event>
    12  9999  1.000000e+00  1.827137e+02  7.879586e-03  1.069081e-01
        1    -1     0     0   101     0  0.0000000000e+00  0.0000000000e+00  4.8889286778e+02  4.8889286778e+02  0.0000000000e+00 0. 9.
       -1    -1     0     0     0   102  0.0000000000e+00  0.0000000000e+00 -6.8820042169e+01  6.8820042169e+01  0.0000000000e+00 0. 9.
        6     2     1     2   101     0 -3.9360323409e+01  5.2466244102e+01  1.8495471886e+02  2.5966840714e+02  1.7005143872e+02  4.707511e-14 9.
       -6     2     1     2     0   102  3.9360323409e+01 -5.2466244102e+01  2.3511810675e+02  2.9804450281e+02  1.7102064116e+02  8.352888e-14 9.
       24     2     3     0     0     0 -4.7271511617e+01 -1.2385495508e+01  4.4047671691e+01  1.0427802465e+02  8.0905579124e+01  8.247325e-14 9.
        5     1     3     0   101     0  7.9111882077e+00  6.4851739610e+01  1.4090704717e+02  1.5539038250e+02  4.8000000000e+00 0. 9.
      -24     2     4     0     0     0  4.0832959823e+01  2.6744977899e+01  7.7674251231e+01  1.2172605797e+02  8.0008246041e+01  1.349313e-13 9.
       -5     1     4     0     0   102 -1.4726364132e+00 -7.9211222001e+01  1.5744385552e+02  1.7631844484e+02  4.8000000000e+00 0. 9.
       -3     1     5     0     0   103 -1.8901354750e+01  1.6670524143e+01 -1.7384959252e+01  3.0621142938e+01  5.0000000000e-01 0. 9.
        4     1     5     0   103     0 -2.8370156867e+01 -2.9056019651e+01  6.1432630943e+01  7.3656881709e+01  1.5000000000e+00 0. 9.
        3     1     7     0   104     0 -2.1446291980e+01 -7.0290524530e+00  1.4824142156e+01  2.7006595653e+01  5.0000000000e-01 0. 9.
       -4     1     7     0     0   104  6.2279251803e+01  3.3774030352e+01  6.2850109075e+01  9.4719462320e+01  1.5000000000e+00 0. 9.
#pdf    1   -1  7.521429e-02  1.058770e-02  1.822620e+02  3.871266e-01  5.265676e-01
</event>
<event>
    12  9999  1.000000e+00  1.818195e+02  7.879144e-03  1.069725e-01
       21    -1     0     0   101   102  0.0000000000e+00  0.0000000000e+00  3.1185655720e+01  3.1185655720e+01  0.0000000000e+00 0. 9.
       21    -1     0     0   103   101  0.0000000000e+00  0.0000000000e+00 -1.8494816776e+03  1.8494816776e+03  0.0000000000e+00 0. 9.
        6     2     1     2   103     0 -6.0035805786e+01 -1.6006584519e+01 -1.5235306412e+03  1.5343429786e+03  1.7088666583e+02  1.396360e-13 9.
       -6     2     1     2     0   102  6.0035805786e+01  1.6006584519e+01 -2.9476538068e+02  3.4632435472e+02  1.7086082145e+02  7.316913e-14 9.
       24     2     3     0     0     0 -6.1218122242e+01  1.0041787050e+01 -4.2810991980e+02  4.3860144319e+02  7.2419793978e+01  2.644306e-14 9.
        5     1     3     0   103     0  1.1823164562e+00 -2.6048371569e+01 -1.0954207214e+03  1.0957415354e+03  4.8000000000e+00 0. 9.
      -24     2     4     0     0     0  7.0327967603e+01 -4.6451702580e+00 -9.0454612367e+01  1.4065871924e+02  8.1456968805e+01  5.838547e-14 9.
       -5     1     4     0     0   102 -1.0292161818e+01  2.0651754777e+01 -2.0431076831e+02  2.0566563548e+02  4.8000000000e+00 0. 9.
       -3     1     5     0     0   104  2.0005547014e+00  2.8561267133e-01  2.5059393917e+00  3.2578406876e+00  5.0000000000e-01 0. 9.
        4     1     5     0   104     0 -6.3218676943e+01  9.7561743788e+00 -4.3061585919e+02  4.3534360250e+02  1.5000000000e+00 0. 9.
        3     1     7     0   105     0 -6.4885492115e+00 -2.1433505867e+01 -2.2918300053e+00  2.2516636725e+01  5.0000000000e-01 0. 9.
       -4     1     7     0     0   105  7.6816516815e+01  1.6788335609e+01 -8.8162782362e+01  1.1814208252e+02  1.5000000000e+00 0. 9.
#pdf   21   21  4.797793e-03  2.845356e-01  1.818074e+02  1.380621e+01  1.208786e-01
</event>
<event>
    12  9999  1.000000e+00  1.905122e+02  7.883350e-03  1.063625e-01
       21    -1     0     0   101   102  0.0000000000e+00  0.0000000000e+00  2.6475474223e+02  2.6475474223e+02  0.0000000000e+00 0. 9.
       21    -1     0     0   102   103  0.0000000000e+00  0.0000000000e+00 -1.5672452659e+02  1.5672452659e+02  0.0000000000e+00 0. 9.
        6     2     1     2   101     0 -6.9228992801e+01  4.7319102314e+01  1.2856815429e+02  2.2970160978e+02  1.7088390313e+02  5.732006e-14 9.
       -6     2     1     2     0   103  6.9228992801e+01 -4.7319102314e+01 -2.0537938647e+01  1.9177765904e+02  1.7124576695e+02  3.673598e-13 9.
       24     2     3     0     0     0 -8.9795957269e+01  7.6970735027e+01  6.6527914365e+01  1.5776934497e+02  8.0482264071e+01  2.261373e-13 9.
        5     1     3     0   101     0  2.0566964468e+01 -2.9651632713e+01  6.2040239928e+01  7.1932264807e+01  4.8000000000e+00 0. 9.
      -24     2     4     0     0     0 -3.6225475774e+00  9.4493995738e+00  2.9927227525e+01  8.6422152597e+01  8.0440882074e+01  2.503864e-15 9.
       -5     1     4     0     0   103  7.2851540379e+01 -5.6768501888e+01 -5.0465166172e+01  1.0535550645e+02  4.8000000000e+00 0. 9.
       -1     1     5     0     0   104  1.2705579399e+01  8.3332843239e+00 -3.9401720436e+00  1.5700612448e+01  3.3000000000e-01 0. 9.
        2     1     5     0   104     0 -1.0250153667e+02  6.8637450703e+01  7.0468086409e+01  1.4206873252e+02  3.3000000000e-01 0. 9.
       15     1     7     0     0     0 -1.7789419905e+01  1.5315971283e+01 -2.2034846147e+01  3.2244906124e+01  1.7768200000e+00  3.104105e-02 9.
      -16     1     7     0     0     0  1.4166872327e+01 -5.8665717096e+00  5.1962073672e+01  5.4177246473e+01  0.0000000000e+00 0. 9.
#pdf   21   21  4.073150e-02  2.411147e-02  1.903498e+02  2.366691e+00  3.914200e+00
</event>
<event>
    12  9999  1.000000e+00  1.941997e+02  7.885078e-03  1.061141e-01
       21    -1     0     0   101   102  0.0000000000e+00  0.0000000000e+00  1.5052061276e+02  1.5052061276e+02  0.0000000000e+00 0. 9.
       21    -1     0     0   103   101  0.0000000000e+00  0.0000000000e+00 -3.3311810238e+02  3.3311810238e+02  0.0000000000e+00 0. 9.
        6     2     1     2   103     0 -6.1861185293e+01 -6.9196821360e+01 -2.1179958684e+02  2.8756919188e+02  1.7094434416e+02  3.269910e-14 9.
       -6     2     1     2     0   102  6.1861185293e+01  6.9196821360e+01  2.9202097217e+01  1.9606952326e+02  1.7022188207e+02  1.709072e-13 9.
       24     2     3     0     0     0 -8.6961314260e+01 -4.4610339071e+01 -2.1770379275e+02  2.5161907042e+02  7.9780089561e+01  5.488757e-14 9.
        5     1     3     0   103     0  2.5100128966e+01 -2.4586482289e+01  5.9042059115e+00  3.5950121459e+01  4.8000000000e+00 0. 9.
      -24     2     4     0     0     0  3.4099316830e+01 -2.9495111136e+01  7.9805375005e+00  9.1263924758e+01  7.8947387507e+01  3.909594e-14 9.
       -5     1     4     0     0   102  2.7761868463e+01  9.8691932496e+01  2.1221559716e+01  1.0480559850e+02  4.8000000000e+00 0. 9.
       -3     1     5     0     0   104  4.6912397350e+00 -1.8105802299e+00  4.9416501628e+00  7.0679443511e+00  5.0000000000e-01 0. 9.
        4     1     5     0   104     0 -9.1652553995e+01 -4.2799758841e+01 -2.2264544291e+02  2.4455112607e+02  1.5000000000e+00 0. 9.
        3     1     7     0   105     0  4.1767194967e+01 -2.1753193493e+01  3.7217902069e+01  6.0026013003e+01  5.0000000000e-01 0. 9.
       -4     1     7     0     0   105 -7.6678781364e+00 -7.7419176428e+00 -2.9237364569e+01  3.1237911755e+01  1.5000000000e+00 0. 9.
#pdf   21   21  2.315702e-02  5.124894e-02  1.938827e+02  4.056922e+00  1.854024e+00
</event>
<event>
    12  9999  1.000000e+00  2.333423e+02  7.901667e-03  1.037935e-01
       21    -1     0     0   101   102  0.0000000000e+00  0.0000000000e+00  1.6223954384e+02  1.6223954384e+02  0.0000000000e+00 0. 9.
       21    -1     0     0   103   101  0.0000000000e+00  0.0000000000e+00 -3.4778473320e+02  3.4778473320e+02  0.0000000000e+00 0. 9.
        6     2     1     2   103     0 -1.2621511447e+02  9.5248745938e+01 -4.4999150797e+01  2.3750358288e+02  1.7140726234e+02  1.539935e-13 9.
       -6     2     1     2     0   102  1.2621511447e+02 -9.5248745938e+01 -1.4054603857e+02  2.7252069416e+02  1.7178987475e+02  1.466882e-13 9.
       24     2     3     0     0     0 -2.3604921911e+01  7.6409990985e+01 -6.6878149313e+01  1.3080081402e+02  7.8996753299e+01  3.030683e-15 9.
        5     1     3     0   103     0 -1.0261019256e+02  1.8838754953e+01  2.1878998516e+01  1.0670276886e+02  4.8000000000e+00 0. 9.
      -24     2     4     0     0     0  9.0011792895e+01 -8.7936630578e+01 -1.6918545467e+02  2.2553767937e+02  8.0053437694e+01  1.753760e-14 9.
       -5     1     4     0     0   102  3.6203321579e+01 -7.3121153600e+00  2.8639416101e+01  4.6983014792e+01  4.8000000000e+00 0. 9.
      -11     1     5     0     0     0 -3.9573429593e+00  8.2185676689e+01 -2.8099212771e+01  8.6946603008e+01  5.1100000000e-04 0. 9.
       12     1     5     0     0     0 -1.9647578952e+01 -5.7756857035e+00 -3.8778936543e+01  4.3854211011e+01  0.0000000000e+00 0. 9.
        1     1     7     0   104     0  2.5284693502e+01 -2.3605246885e+01 -1.4967003981e+00  3.4624737083e+01  3.3000000000e-01 0. 9.
       -2     1     7     0     0   104  6.4727099393e+01 -6.4331383692e+01 -1.6768875427e+02  1.9091294229e+02  3.3000000000e-01 0. 9.
#pdf   21   21  2.495993e-02  5.350534e-02  2.332017e+02  3.770174e+00  1.746063e+00
</event>
<event>
    12  9999  1.000000e+00  1.947707e+02  7.885343e-03  1.060762e-01
       21    -1     0     0   101   102  0.0000000000e+00  0.0000000000e+00  5.3657483007e+02  5.3657483007e+02  0.0000000000e+00 0. 9.
       21    -1     0     0   102   103  0.0000000000e+00  0.0000000000e+00 -3.8467002574e+02  3.8467002574e+02  0.0000000000e+00 0. 9.
        6     2     1     2   101     0  8.3683239639e+01 -4.1071102100e+01  4.9211841907e+02  5.2936606569e+02  1.7134226883e+02  8.560602e-16 9.
       -6     2     1     2     0   103 -8.3683239639e+01  4.1071102100e+01 -3.4021361474e+02  3.9187879012e+02  1.7068673782e+02  4.310637e-13 9.
       24     2     3     0     0     0  2.4990371509e+01 -6.4397022497e+01  1.7679908193e+02  2.0774785148e+02  8.4437901742e+01  7.726651e-15 9.
        5     1     3     0   101     0  5.8692868129e+01  2.3325920397e+01  3.1531933715e+02  3.2161821421e+02  4.8000000000e+00 0. 9.
      -24     2     4     0     0     0  1.0347611028e+01  5.9005578360e+01 -1.7462623455e+02  2.0055271559e+02  7.8347550103e+01  1.327598e-13 9.
       -5     1     4     0     0   103 -9.4030850667e+01 -1.7934476260e+01 -1.6558738020e+02  1.9132607453e+02  4.8000000000e+00 0. 9.
      -15     1     5     0     0     0  9.8618535509e+00  1.3236537692e+01  8.4859857760e+01  8.6468575991e+01  1.7768200000e+00  1.550156e-02 9.
       16     1     5     0     0     0  1.5128517959e+01 -7.7633560189e+01  9.1939224167e+01  1.2127927549e+02  0.0000000000e+00 0. 9.
       13     1     7     0     0     0  1.7444434360e+01  3.6693457573e+01 -1.7229815250e+02  1.7702367818e+02  1.0566000000e-01  6.968367e+05 9.
      -14     1     7     0     0     0 -7.0968233315e+00  2.2312120786e+01 -2.3280820499e+00  2.3529037410e+01  0.0000000000e+00 0. 9.
#pdf   21   21  8.254997e-02  5.918000e-02  1.944831e+02  1.056520e+00  1.578395e+00
</event>
<event>
    12  9999  1.000000e+00  2.035745e+02  7.889331e-03  1.055083e-01
       -2    -1     0     0     0   101  0.0000000000e+00  0.0000000000e+00  2.1252555944e+02  2.1252555944e+02  0.0000000000e+00 0. 9.
        2    -1     0     0   102     0  0.0000000000e+00  0.0000000000e+00 -2.4261334148e+02  2.4261334148e+02  0.0000000000e+00 0. 9.
       -6     2     1     2     0   101  9.3832084500e+01 -5.6718171635e+01  8.5807259111e+01  2.2029474990e+02  1.7072047341e+02  7.516712e-14 9.
        6     2     1     2   102     0 -9.3832084500e+01  5.6718171635e+01 -1.1589504115e+02  2.3484415103e+02  1.7233311822e+02  2.554246e-13 9.
      -24     2     3     0     0     0  5.9689053078e+01 -7.6232709164e+01  1.0070553390e+00  1.2669625456e+02  8.1711185006e+01  2.336585e-13 9.
       -5     1     3     0     0   101  3.4143031422e+01  1.9514537529e+01  8.4800203772e+01  9.3598495337e+01  4.8000000000e+00 0. 9.
       24     2     4     0     0     0 -4.5911932309e+01  5.5249755275e+01 -1.4266033813e+02  1.7972683655e+02  8.2397346529e+01  2.471644e-13 9.
        5     1     4     0   102     0 -4.7920152191e+01  1.4684163603e+00  2.6765296983e+01  5.5117314477e+01  4.8000000000e+00 0. 9.
       11     1     5     0     0     0  6.5046314057e+01 -7.0940245220e+01  2.6732873044e+01  9.9890879793e+01  5.1100000000e-04 0. 9.
      -12     1     5     0     0     0 -5.3572609783e+00 -5.2924639441e+00 -2.5725817705e+01  2.6805374767e+01  0.0000000000e+00 0. 9.
       -1     1     7     0     0   103 -6.7623208601e+01  4.9805404717e+01 -9.3331702522e+01  1.2555633109e+02  3.3000000000e-01 0. 9.
        2     1     7     0   103     0  2.1711276292e+01  5.4443505577e+00 -4.9328635606e+01  5.4170505462e+01  3.3000000000e-01 0. 9.
#pdf   -2    2  3.269624e-02  3.732513e-02  2.028963e+02  2.294676e-01  6.360995e-01
</event>
<event>
    12  9999  1.000000e+00  2.336556e+02  7.901788e-03  1.037769e-01
       21    -1     0     0   101   102  0.0000000000e+00  0.0000000000e+00  6.7149074926e+02  6.7149074926e+02  0.0000000000e+00 0. 9.
       21    -1     0     0   103   101  0.0000000000e+00  0.0000000000e+00 -9.2463206575e+01  9.2463206575e+01  0.0000000000e+00 0. 9.
        6     2     1     2   103     0 -8.3633768568e+01  1.3638680450e+02  4.2091164808e+02  4.8084520530e+02  1.6866987959e+02  1.508326e-13 9.
       -6     2     1     2     0   102  8.3633768568e+01 -1.3638680450e+02  1.5811589460e+02  2.8310875054e+02  1.7191265462e+02  5.178139e-13 9.
       24     2     3     0     0     0 -1.1741388757e+02  1.3205085881e+02  3.1986080587e+02  3.7410154236e+02  8.0109790665e+01  5.793145e-14 9.
        5     1     3     0   103     0  3.3780118997e+01  4.3359456830e+00  1.0105084222e+02  1.0674366294e+02  4.8000000000e+00 0. 9.
      -24     2     4     0     0     0 -1.6973737429e+01 -3.6162362669e+01  8.7778512280e+01  1.2456160817e+02  7.8833386167e+01  5.809767e-14 9.
       -5     1     4     0     0   102  1.0060750600e+02 -1.0022444183e+02  7.0337382323e+01  1.5854714237e+02  4.8000000000e+00 0. 9.
      -13     1     5     0     0     0 -6.0509769097e+01  1.0443290276e+02  1.4803091924e+02  1.9099954856e+02  1.0566000000e-01  8.763416e+04 9.
       14     1     5     0     0     0 -5.6904118468e+01  2.7617956050e+01  1.7182988663e+02  1.8310199380e+02  0.0000000000e+00 0. 9.
        3     1     7     0   104     0  8.8751267147e+00  2.2521176326e+01  2.2787125437e+01  3.3248674304e+01  5.0000000000e-01 0. 9.
       -4     1     7     0     0   104 -2.5848864143e+01 -5.8683538995e+01  6.4991386843e+01  9.1312933861e+01  1.5000000000e+00 0. 9.
#pdf   21   21  1.033063e-01  1.422511e-02  2.324769e+02  7.692312e-01  6.138239e+00
</event>
<event>
    12  9999  1.000000e+00  2.644088e+02  7.912999e-03  1.022718e-01
       21    -1     0     0   101   102  0.0000000000e+00  0.0000000000e+00  1.4447407389e+02  1.4447407389e+02  0.0000000000e+00 0. 9.
       21    -1     0     0   103   101  0.0000000000e+00  0.0000000000e+00 -5.2305835026e+02  5.2305835026e+02  0.0000000000e+00 0. 9.
        6     2     1     2   103     0 -1.7887759349e+02 -5.9591456539e+01 -2.7409440057e+02  3.7487906410e+02  1.7279536201e+02  1.886826e-13 9.
       -6     2     1     2     0   102  1.7887759349e+02  5.9591456539e+01 -1.0448987580e+02  2.9265336005e+02  1.9793817182e+02  4.056767e-13 9.
       24     2     3     0     0     0 -8.8685457254e+01 -9.9839265472e+01 -1.5811528714e+02  2.2246941115e+02  8.1603955846e+01  3.422603e-14 9.
        5     1     3     0   103     0 -9.0192136235e+01  4.0247808933e+01 -1.1597911343e+02  1.5240965296e+02  4.8000000000e+00 0. 9.
      -24     2     4     0     0     0  1.8060778798e+02 -5.2775267729e+00 -4.4959590013e+01  2.0446110702e+02  8.4474577140e+01  7.036046e-14 9.
       -5     1     4     0     0   102 -1.7301944924e+00  6.4868983312e+01 -5.9530285783e+01  8.8192253029e+01  4.8000000000e+00 0. 9.
       -1     1     5     0     0   104 -1.3424366213e+00 -2.0538845785e+01  4.9805587886e+00  2.1179263162e+01  3.3000000000e-01 0. 9.
        2     1     5     0   104     0 -8.7343020632e+01 -7.9300419687e+01 -1.6309584593e+02  2.0129014798e+02  3.3000000000e-01 0. 9.
        1     1     7     0   105     0 -2.8187319370e+00  1.3901178658e+01 -8.2637157997e+00  1.6419071735e+01  3.3000000000e-01 0. 9.
       -2     1     7     0     0   105  1.8342651992e+02 -1.9178705431e+01 -3.6695874214e+01  1.8804203529e+02  3.3000000000e-01 0. 9.
#pdf   21   21  2.222678e-02  8.047052e-02  2.557471e+02  4.177929e+00  1.064350e+00
</event>
<event>
    12  9999  1.000000e+00  2.425836e+02  7.905185e-03  1.033157e-01
       -2    -1     0     0     0   101  0.0000000000e+00  0.0000000000e+00  3.1602440048e+01  3.1602440048e+01  0.0000000000e+00 0. 9.
        2    -1     0     0   102     0  0.0000000000e+00  0.0000000000e+00 -2.2999271973e+03  2.2999271973e+03  0.0000000000e+00 0. 9.
       -6     2     1     2     0   101 -1.6314165340e+02  5.6483099524e+01 -6.2801429222e+02  6.7347400334e+02  1.7134684803e+02  3.591330e-14 9.
        6     2     1     2   102     0  1.6314165340e+02 -5.6483099524e+01 -1.6403104650e+03  1.6580556340e+03  1.6948310884e+02  2.547427e-13 9.
      -24     2     3     0     0     0 -1.0012612067e+02  1.0000826376e+01 -5.4152579026e+02  5.5670559985e+02  8.0905418952e+01  2.543015e-13 9.
       -5     1     3     0     0   101 -6.3015532731e+01  4.6482273148e+01 -8.6488501965e+01  1.1676840349e+02  4.8000000000e+00 0. 9.
       24     2     4     0     0     0  1.5687677568e+02 -5.9423023044e+01 -1.6389110172e+03  1.6495180525e+03  8.2091808493e+01  2.033857e-13 9.
        5     1     4     0   102     0  6.2648777151e+00  2.9399235197e+00 -1.3994478570e+00  8.5375814720e+00  4.8000000000e+00 0. 9.
       15     1     5     0     0     0 -4.6778879404e+01  3.7406660379e+01 -3.7395074656e+02  3.7872132200e+02  1.7768200000e+00  1.894284e-01 9.
      -16     1     5     0     0     0 -5.3347241264e+01 -2.7405834003e+01 -1.6757504370e+02  1.7798427784e+02  0.0000000000e+00 0. 9.
      -11     1     7     0     0     0 -2.6543668802e+00  1.1214634641e+01 -7.0921653380e+01  7.1851893587e+01  5.1100000000e-04 0. 9.
       12     1     7     0     0     0  1.5953114256e+02 -7.0637657684e+01 -1.5679893638e+03  1.5776661590e+03  0.0000000000e+00 0. 9.
#pdf   -2    2  4.861914e-03  3.538350e-01  2.419299e+02  7.855558e-01  2.313605e-01
</event>
<event>
    12  9999  1.000000e+00  1.930497e+02  7.884543e-03  1.061910e-01
       21    -1     0     0   101   102  0.0000000000e+00  0.0000000000e+00  3.6117403027e+02  3.6117403027e+02  0.0000000000e+00 0. 9.
       21    -1     0     0   102   103  0.0000000000e+00  0.0000000000e+00 -2.9010690852e+02  2.9010690852e+02  0.0000000000e+00 0. 9.
        6     2     1     2   101     0 -4.2039783417e+01 -4.9446418922e+01  2.9726052587e+02  3.6036702383e+02  1.9310173455e+02  9.527681e-15 9.
       -6     2     1     2     0   103  4.2039783417e+01  4.9446418922e+01 -2.2619340413e+02  2.9091391496e+02  1.7104139298e+02  1.181711e-13 9.
       24     2     3     0     0     0 -2.1157329948e+01  3.5303401425e+01  2.1199670802e+02  2.3825409435e+02  1.0064018332e+02  4.918724e-14 9.
        5     1     3     0   101     0 -2.0882453469e+01 -8.4749820347e+01  8.5263817851e+01  1.2211292948e+02  4.8000000000e+00 0. 9.
      -24     2     4     0     0     0 -5.4190122407e+00  7.2258146157e+01 -7.1668583057e+01  1.2759314925e+02  7.6766011741e+01  7.815888e-14 9.
       -5     1     4     0     0   103  4.7458795658e+01 -2.2811727235e+01 -1.5452482107e+02  1.6332076571e+02  4.8000000000e+00 0. 9.
       -1     1     5     0     0   104 -8.5537050345e+00 -5.3186220133e+00  1.9018880980e+02  1.9045562707e+02  3.3000000000e-01 0. 9.
        2     1     5     0   104     0 -1.2603624913e+01  4.0622023438e+01  2.1807898221e+01  4.7798467276e+01  3.3000000000e-01 0. 9.
        1     1     7     0   105     0  1.7382883745e+01  4.1834646794e+01  1.2898517055e+00  4.5321903502e+01  3.3000000000e-01 0. 9.
       -2     1     7     0     0   105 -2.2801895985e+01  3.0423499363e+01 -7.2958434762e+01  8.2271245748e+01  3.3000000000e-01 0. 9.
#pdf   21   21  5.556524e-02  4.463183e-02  1.829411e+02  1.701993e+00  2.157129e+00
</event>
<event>
    12  9999  1.000000e+00  1.956271e+02  7.885739e-03  1.060196e-01
       21    -1     0     0   101   102  0.0000000000e+00  0.0000000000e+00  1.3518257088e+02  1.3518257088e+02  0.0000000000e+00 0. 9.
       21    -1     0     0   103   101  0.0000000000e+00  0.0000000000e+00 -4.1477655036e+02  4.1477655036e+02  0.0000000000e+00 0. 9.
        6     2     1     2   103     0 -6.1746052683e+01  7.4695447101e+01 -2.9436326709e+02  3.5302604336e+02  1.6907297074e+02  1.275570e-13 9.
       -6     2     1     2     0   102  6.1746052683e+01 -7.4695447101e+01  1.4769287605e+01  1.9693307788e+02  1.7079965008e+02  3.424970e-13 9.
       24     2     3     0     0     0 -1.3565259753e+01  7.6924574797e+01 -9.1111567888e+01  1.4407473074e+02  7.9717022984e+01  3.302317e-13 9.
        5     1     3     0   103     0 -4.8180792930e+01 -2.2291276958e+00 -2.0325169920e+02  2.0895131262e+02  4.8000000000e+00 0. 9.
      -24     2     4     0     0     0  2.4928270502e+01 -5.3995338827e+01  7.3727153960e+01  1.2424804797e+02  8.0405030372e+01  9.869828e-15 9.
       -5     1     4     0     0   102  3.6817782182e+01 -2.0700108274e+01 -5.8957866355e+01  7.2685029906e+01  4.8000000000e+00 0. 9.
       -3     1     5     0     0   104 -1.8572040275e+01  1.7438321531e+01  9.4025478336e+00  2.7160148077e+01  5.0000000000e-01 0. 9.
        4     1     5     0   104     0  5.0067805218e+00  5.9486253266e+01 -1.0051411572e+02  1.1691458266e+02  1.5000000000e+00 0. 9.
        3     1     7     0   105     0  1.4024360767e+00  8.6841271553e+00  5.3605025838e+01  5.4324301068e+01  5.0000000000e-01 0. 9.
       -4     1     7     0     0   105  2.3525834425e+01 -6.2679465983e+01  2.0122128121e+01  6.9923746906e+01  1.5000000000e+00 0. 9.
#pdf   21   21  2.079732e-02  6.381178e-02  1.948786e+02  4.461167e+00  1.446452e+00
</event>
<event>
    12  9999  1.000000e+00  1.897039e+02  7.882967e-03  1.064177e-01
       21    -1     0     0   101   102  0.0000000000e+00  0.0000000000e+00  8.0482259187e+02  8.0482259187e+02  0.0000000000e+00 0. 9.
       21    -1     0     0   102   103  0.0000000000e+00  0.0000000000e+00 -1.7792168883e+02  1.7792168883e+02  0.0000000000e+00 0. 9.
        6     2     1     2   101     0 -6.2633601531e+01 -6.6170179494e+01  7.3665053031e+02  7.5957372682e+02  1.6123517595e+02  5.864843e-14 9.
       -6     2     1     2     0   103  6.2633601531e+01  6.6170179494e+01 -1.0974962727e+02  2.2317055389e+02  1.7163523747e+02  7.561932e-14 9.
       24     2     3     0     0     0 -8.0712910770e+01 -5.6897044203e+01  3.9736115891e+02  4.1964260143e+02  9.1935709701e+01  4.394956e-14 9.
        5     1     3     0   101     0  1.8079309239e+01 -9.2731352906e+00  3.3928937140e+02  3.3993112539e+02  4.8000000000e+00 0. 9.
      -24     2     4     0     0     0  6.6786336730e+01  1.6576710988e+01 -1.3014891472e+02  1.6917121819e+02  8.3336420247e+01  2.071327e-14 9.
       -5     1     4     0     0   103 -4.1527351990e+00  4.9593468506e+01  2.0399287442e+01  5.3999335701e+01  4.8000000000e+00 0. 9.
       -1     1     5     0     0   104 -3.2829428684e+01  2.0677319337e+01  1.7635312524e+02  1.8057091849e+02  3.3000000000e-01 0. 9.
        2     1     5     0   104     0 -4.7883482086e+01 -7.7574363541e+01  2.2100803368e+02  2.3907168294e+02  3.3000000000e-01 0. 9.
        1     1     7     0   105     0  4.3435620946e+01  5.0531389023e+01 -8.5709383928e+01  1.0856464359e+02  3.3000000000e-01 0. 9.
       -2     1     7     0     0   105  2.3350715784e+01 -3.3954678035e+01 -4.4439530787e+01  6.0606574599e+01  3.3000000000e-01 0. 9.
#pdf   21   21  1.238189e-01  2.737257e-02  1.851978e+02  6.078966e-01  3.488574e+00
</event>
<event>
    12  9999  1.000000e+00  2.414260e+02  7.904751e-03  1.033743e-01
       21    -1     0     0   101   102  0.0000000000e+00  0.0000000000e+00  7.2191739638e+02  7.2191739638e+02  0.0000000000e+00 0. 9.
       21    -1     0     0   103   101  0.0000000000e+00  0.0000000000e+00 -1.2253429389e+02  1.2253429389e+02  0.0000000000e+00 0. 9.
        6     2     1     2   103     0  1.3847521564e+02 -9.9506408478e+01  5.3084810525e+01  2.4717799757e+02  1.7088608691e+02  2.218242e-14 9.
       -6     2     1     2     0   102 -1.3847521564e+02  9.9506408478e+01  5.4629829196e+02  5.9727369270e+02  1.7093018899e+02  2.430055e-13 9.
       24     2     3     0     0     0  1.3298778957e+02 -1.0101614961e+02  9.2085566706e+01  2.0747295827e+02  8.1702277568e+01  5.702859e-14 9.
        5     1     3     0   103     0  5.4874260626e+00  1.5097411327e+00 -3.9000756181e+01  3.9705039299e+01  4.8000000000e+00 0. 9.
      -24     2     4     0     0     0 -9.5122362332e+01  9.5814590116e+00  1.8439606996e+02  2.2182432898e+02  7.7872036935e+01  1.931648e-14 9.
       -5     1     4     0     0   102 -4.3352853305e+01  8.9924949466e+01  3.6190222200e+02  3.7544936372e+02  4.8000000000e+00 0. 9.
      -13     1     5     0     0     0  2.3099864651e+01 -6.6940598322e+01  3.7499993648e+01  8.0130569312e+01  1.0566000000e-01  8.733132e+04 9.
       14     1     5     0     0     0  1.0988792492e+02 -3.4075551289e+01  5.4585573058e+01  1.2734238896e+02  0.0000000000e+00 0. 9.
       15     1     7     0     0     0  7.3293899941e+00  1.3954553240e+01  5.1968629075e+01  5.4335485744e+01  1.7768200000e+00  6.711502e-02 9.
      -16     1     7     0     0     0 -1.0245175233e+02 -4.3730942280e+00  1.3242744089e+02  1.6748884324e+02  0.0000000000e+00 0. 9.
#pdf   21   21  1.110642e-01  1.885143e-02  2.414104e+02  6.911254e-01  4.838567e+00
</event>
<event>
    12  9999  1.000000e+00  1.970562e+02  7.886395e-03  1.059257e-01
       21    -1     0     0   101   102  0.0000000000e+00  0.0000000000e+00  4.2380111724e+02  4.2380111724e+02  0.0000000000e+00 0. 9.
       21    -1     0     0   102   103  0.0000000000e+00  0.0000000000e+00 -4.0948884644e+02  4.0948884644e+02  0.0000000000e+00 0. 9.
        6     2     1     2   101     0 -9.5825802913e+01 -2.6176560638e+01  3.7424394178e+02  4.2324475366e+02  1.7090873797e+02  9.042778e-14 9.
       -6     2     1     2     0   103  9.5825802913e+01  2.6176560638e+01 -3.5993167098e+02  4.1004521002e+02  1.6946524616e+02  5.459668e-13 9.
       24     2     3     0     0     0 -4.3535348867e+01  3.2831550616e+01  2.8773065528e+02  3.0609596998e+02  8.9065007341e+01  3.503690e-13 9.
        5     1     3     0   101     0 -5.2290454047e+01 -5.9008111253e+01  8.6513286497e+01  1.1714878368e+02  4.8000000000e+00 0. 9.
      -24     2     4     0     0     0  3.3393894385e+01  7.9959158366e+00 -6.7395149442e+01  1.1033045316e+02  8.0321951382e+01  7.449807e-14 9.
       -5     1     4     0     0   103  6.2431908529e+01  1.8180644801e+01 -2.9253652154e+02  2.9971475686e+02  4.8000000000e+00 0. 9.
       -1     1     5     0     0   104 -2.0406587666e+01 -2.5151564607e+01  1.6772803460e+02  1.7082690805e+02  3.3000000000e-01 0. 9.
        2     1     5     0   104     0 -2.3128761200e+01  5.7983115223e+01  1.2000262068e+02  1.3526906193e+02  3.3000000000e-01 0. 9.
       11     1     7     0     0     0  2.0841790301e+01  4.0391962019e+01 -1.5783541333e+01  4.8114561164e+01  5.1100000000e-04 0. 9.
      -12     1     7     0     0     0  1.2552104084e+01 -3.2396046183e+01 -5.1611608108e+01  6.2215891995e+01  0.0000000000e+00 0. 9.
#pdf   21   21  6.520017e-02  6.299828e-02  1.964339e+02  1.409480e+00  1.467404e+00
</event>
<event>
    12  9999  1.000000e+00  1.806243e+02  7.878551e-03  1.070592e-01
       21    -1     0     0   101   102  0.0000000000e+00  0.0000000000e+00  2.7879615936e+02  2.7879615936e+02  0.0000000000e+00 0. 9.
       21    -1     0     0   103   101  0.0000000000e+00  0.0000000000e+00 -1.3713971955e+02  1.3713971955e+02  0.0000000000e+00 0. 9.
        6     2     1     2   103     0  1.7865759229e+01 -5.6757369707e+01 -8.8590697984e+00  1.8074333358e+02  1.7043792168e+02  8.002230e-14 9.
       -6     2     1     2     0   102 -1.7865759229e+01  5.6757369707e+01  1.5051550961e+02  2.3519254533e+02  1.7064592107e+02  2.399606e-13 9.
       24     2     3     0     0     0  6.7990501524e+01 -6.3649866016e+01 -2.3275910156e+01  1.2791453858e+02  8.4536071859e+01  1.004514e-14 9.
        5     1     3     0   103     0 -5.0124742294e+01  6.8924963083e+00  1.4416840357e+01  5.2828795002e+01  4.8000000000e+00 0. 9.
      -24     2     4     0     0     0 -1.4337914483e+01  3.1714553570e+01  7.9037427137e+00  9.0276209514e+01  8.2921264797e+01  7.591592e-16 9.
       -5     1     4     0     0   102 -3.5278447463e+00  2.5042816137e+01  1.4261176690e+02  1.4491633582e+02  4.8000000000e+00 0. 9.
      -15     1     5     0     0     0  1.0543377022e+01  1.9192930501e+01  6.2961125999e+00  2.2854529166e+01  1.7768200000e+00  5.978848e-02 9.
       16     1     5     0     0     0  5.7447124501e+01 -8.2842796516e+01 -2.9572022756e+01  1.0506000941e+02  0.0000000000e+00 0. 9.
        1     1     7     0   104     0  3.3834062299e+01  2.1416536254e+01 -1.7307962736e+00  4.0081371640e+01  3.3000000000e-01 0. 9.
       -2     1     7     0     0   104 -4.8171976782e+01  1.0298017316e+01  9.6345389873e+00  5.0194837874e+01  3.3000000000e-01 0. 9.
#pdf   21   21  4.289172e-02  2.109842e-02  1.805261e+02  2.250028e+00  4.411640e+00
</event>
<event>
    12  9999  1.000000e+00  2.662939e+02  7.913644e-03  1.021866e-01
       21    -1     0     0   101   102  0.0000000000e+00  0.0000000000e+00  1.4113034357e+02  1.4113034357e+02  0.0000000000e+00 0. 9.
       21    -1     0     0   103   101  0.0000000000e+00  0.0000000000e+00 -5.0287648864e+02  5.0287648864e+02  0.0000000000e+00 0. 9.
        6     2     1     2   103     0  9.5208991967e+00  2.0487494225e+02 -1.9055309586e+02  3.2799570649e+02  1.7089854198e+02  2.244158e-13 9.
       -6     2     1     2     0   102 -9.5208991967e+00 -2.0487494225e+02 -1.7119304921e+02  3.1601112572e+02  1.6879449636e+02  1.518653e-13 9.
       24     2     3     0     0     0  2.1210563778e+01  1.3937185808e+02 -2.0255335888e+02  2.6021408209e+02  8.2517285964e+01  2.621470e-14 9.
        5     1     3     0   103     0 -1.1689664582e+01  6.5503084171e+01  1.2000263025e+01  6.7781624402e+01  4.8000000000e+00 0. 9.
      -24     2     4     0     0     0 -4.7337943184e+01 -1.8671802114e+02 -1.7664743068e+02  2.7343656903e+02  8.0366300355e+01  1.023055e-13 9.
       -5     1     4     0     0   102  3.7817043987e+01 -1.8156921105e+01  5.4543814764e+00  4.2574556688e+01  4.8000000000e+00 0. 9.
       -1     1     5     0     0   104  4.9173186027e+01  6.5770928022e+01 -8.0696365808e+01  1.1513396350e+02  3.3000000000e-01 0. 9.
        2     1     5     0   104     0 -2.7962622249e+01  7.3600930053e+01 -1.2185699307e+02  1.4508011858e+02  3.3000000000e-01 0. 9.
        1     1     7     0   105     0 -5.2383363742e+01 -1.4748669331e+02 -1.7363846271e+02  2.3376647778e+02  3.3000000000e-01 0. 9.
       -2     1     7     0     0   105  5.0454205582e+00 -3.9231327831e+01 -3.0089679777e+00  3.9670091256e+01  3.3000000000e-01 0. 9.
#pdf   21   21  2.171236e-02  7.736561e-02  2.656237e+02  4.262526e+00  1.115231e+00
</event>
<event>
    12  9999  1.000000e+00  2.249630e+02  7.898358e-03  1.042474e-01
       21    -1     0     0   101   102  0.0000000000e+00  0.0000000000e+00  4.4476362622e+02  4.4476362622e+02  0.0000000000e+00 0. 9.
       21    -1     0     0   102   103  0.0000000000e+00  0.0000000000e+00 -1.1475455485e+02  1.1475455485e+02  0.0000000000e+00 0. 9.
        6     2     1     2   101     0 -1.1578612183e+02  1.3057450060e+02  1.6400426279e+02  2.6448492607e+02  1.1224416106e+02  3.768399e-14 9.
       -6     2     1     2     0   103  1.1578612183e+02 -1.3057450060e+02  1.6600480858e+02  2.9503325499e+02  1.7038456170e+02  1.170120e-13 9.
       24     2     3     0     0     0 -6.6673750868e+01  1.1129794656e+02  1.2582851496e+02  1.9918532240e+02  8.3721893910e+01  1.056225e-13 9.
        5     1     3     0   101     0 -4.9112370964e+01  1.9276554037e+01  3.8175747827e+01  6.5299603670e+01  4.8000000000e+00 0. 9.
      -24     2     4     0     0     0  6.9192414717e+01 -1.4974980446e+02  9.1936068286e+01  2.0532325494e+02  8.0577938532e+01  3.324304e-13 9.
       -5     1     4     0     0   103  4.6593707115e+01  1.9175303859e+01  7.4068740296e+01  8.9710000055e+01  4.8000000000e+00 0. 9.
       -3     1     5     0     0   104 -2.7695731446e+01  3.9186680495e+01  1.0370132450e+02  1.1426663630e+02  5.0000000000e-01 0. 9.
        4     1     5     0   104     0 -3.8978019421e+01  7.2111266066e+01  2.2127190463e+01  8.4918686103e+01  1.5000000000e+00 0. 9.
        3     1     7     0   105     0  7.6700783984e+01 -1.1697696727e+02  9.8436764312e+01  1.7104580586e+02  5.0000000000e-01 0. 9.
       -4     1     7     0     0   105 -7.5083692675e+00 -3.2772837188e+01 -6.5006960257e+00  3.4277449077e+01  1.5000000000e+00 0. 9.
#pdf   21   21  6.842517e-02  1.765455e-02  2.074967e+02  1.325012e+00  5.132223e+00
</event>
<event>
    12  9999  1.000000e+00  1.782979e+02  7.877384e-03  1.072301e-01
       21    -1     0     0   101   102  0.0000000000e+00  0.0000000000e+00  3.2968553652e+02  3.2968553652e+02  0.0000000000e+00 0. 9.
       21    -1     0     0   103   101  0.0000000000e+00  0.0000000000e+00 -1.1641089221e+02  1.1641089221e+02  0.0000000000e+00 0. 9.
        6     2     1     2   103     0  3.9731517003e+01  3.1003162378e+01  1.9914827520e+02  2.6742715692e+02  1.7122341904e+02  1.257799e-13 9.
       -6     2     1     2     0   102 -3.9731517003e+01 -3.1003162378e+01  1.4126369111e+01  1.7866927180e+02  1.7083139308e+02  2.602655e-14 9.
       24     2     3     0     0     0  6.0580258617e+01  7.2032062221e+01  1.7555382435e+02  2.1548701099e+02  8.2200492327e+01  8.095254e-14 9.
        5     1     3     0   103     0 -2.0848741614e+01 -4.1028899842e+01  2.3594450846e+01  5.1940145936e+01  4.8000000000e+00 0. 9.
      -24     2     4     0     0     0  2.6041368381e+01 -6.1086115111e+01  1.2866558172e+01  1.0617317797e+02  8.1838432752e+01  2.957344e-14 9.
       -5     1     4     0     0   102 -6.5772885384e+01  3.0082952733e+01  1.2598109391e+00  7.2496093829e+01  4.8000000000e+00 0. 9.
      -15     1     5     0     0     0  6.0469631859e+01  1.9746461416e+01  5.5106426194e+01  8.4180605919e+01  1.7768200000e+00  5.287068e-02 9.
       16     1     5     0     0     0  1.1062675798e-01  5.2285600805e+01  1.2044739815e+02  1.3130640507e+02  0.0000000000e+00 0. 9.
       11     1     7     0     0     0  5.5565192411e+01 -3.3283523289e+01  9.7319632536e+00  6.5498050652e+01  5.1100000000e-04 0. 9.
      -12     1     7     0     0     0 -2.9523824029e+01 -2.7802591822e+01  3.1345949187e+00  4.0675127322e+01  0.0000000000e+00 0. 9.
#pdf   21   21  5.072085e-02  1.790937e-02  1.781100e+02  1.884921e+00  5.079801e+00
</event>
<event>
    12  9999  1.000000e+00  1.756621e+02  7.876044e-03  1.074271e-01
       21    -1     0     0   101   102  0.0000000000e+00  0.0000000000e+00  2.1049361527e+02  2.1049361527e+02  0.0000000000e+00 0. 9.
       21    -1     0     0   103   101  0.0000000000e+00  0.0000000000e+00 -1.4814267918e+02  1.4814267918e+02  0.0000000000e+00 0. 9.
        6     2     1     2   103     0 -3.8779404798e+01 -2.2112803336e+01  1.2685703072e+01  1.7503762584e+02  1.6877329495e+02  1.780663e-13 9.
       -6     2     1     2     0   102  3.8779404798e+01  2.2112803336e+01  4.9665233016e+01  1.8359866860e+02  1.7102344118e+02  1.165443e-13 9.
       24     2     3     0     0     0 -4.7764931941e+01  3.5765090200e+01  3.5993921917e+01  1.1181655875e+02  8.7445697410e+01  3.646341e-13 9.
        5     1     3     0   103     0  8.9855271432e+00 -5.7877893536e+01 -2.3308218846e+01  6.3221067090e+01  4.8000000000e+00 0. 9.
      -24     2     4     0     0     0  7.0518173318e+01 -1.5936043963e+01  6.5127056728e+01  1.3147216670e+02  8.8411689465e+01  2.148322e-13 9.
       -5     1     4     0     0   102 -3.1738768520e+01  3.8048847299e+01 -1.5461823712e+01  5.2126501901e+01  4.8000000000e+00 0. 9.
       -1     1     5     0     0   104  1.0387866991e+01 -4.3416510294e+00 -1.9138083483e+01  2.2206594824e+01  3.3000000000e-01 0. 9.
        2     1     5     0   104     0 -5.8152798932e+01  4.0106741230e+01  5.5132005400e+01  8.9609963927e+01  3.3000000000e-01 0. 9.
        1     1     7     0   105     0  8.4327832073e+00  2.4591907136e+01 -8.1313982692e+00  2.7241554049e+01  3.3000000000e-01 0. 9.
       -2     1     7     0     0   105  6.2085390111e+01 -4.0527951099e+01  7.3258454997e+01  1.0423061265e+02  3.3000000000e-01 0. 9.
#pdf   21   21  3.238363e-02  2.279118e-02  1.745773e+02  2.982452e+00  4.124327e+00
</event>
<event>
    12  9999  1.000000e+00  1.759469e+02  7.876190e-03  1.074056e-01
       21    -1     0     0   101   102  0.0000000000e+00  0.0000000000e+00  3.8926183848e+02  3.8926183848e+02  0.0000000000e+00 0. 9.
       21    -1     0     0   102   103  0.0000000000e+00  0.0000000000e+00 -7.6107164311e+02  7.6107164311e+02  0.0000000000e+00 0. 9.
        6     2     1     2   101     0 -5.3867172757e+00 -4.0689420598e+01  3.5834546616e+02  3.9935477748e+02  1.7142963428e+02  2.667578e-15 9.
       -6     2     1     2     0   103  5.3867172757e+00  4.0689420598e+01 -7.3015527079e+02  7.5097870410e+02  1.7075610938e+02  2.715959e-13 9.
       24     2     3     0     0     0 -4.0528114456e+01 -3.4512822629e+01  1.0738493948e+02  1.4582510641e+02  8.3064874930e+01  1.222069e-13 9.
        5     1     3     0   101     0  3.5141397181e+01 -6.1765979683e+00  2.5096052668e+02  2.5352967107e+02  4.8000000000e+00 0. 9.
      -24     2     4     0     0     0  2.4959453632e+00  4.4689766455e+01 -1.8987996273e+02  2.1065953192e+02  7.9496120504e+01  1.144969e-13 9.
       -5     1     4     0     0   103  2.8907719125e+00 -4.0003458578e+00 -5.4027530806e+02  5.4031917218e+02  4.8000000000e+00 0. 9.
       -1     1     5     0     0   104  1.0822957613e-01 -3.0289360563e+01  9.9733982836e+01  1.0423259236e+02  3.3000000000e-01 0. 9.
        4     1     5     0   104     0 -4.0636344032e+01 -4.2234620661e+00  7.6509566408e+00  4.1592514058e+01  1.5000000000e+00 0. 9.
        3     1     7     0   105     0 -3.4584858368e+01  3.2783660817e+01 -1.3639390850e+02  1.4447985714e+02  5.0000000000e-01 0. 9.
       -4     1     7     0     0   105  3.7080803731e+01  1.1906105638e+01 -5.3486054230e+01  6.6179674780e+01  1.5000000000e+00 0. 9.
#pdf   21   21  5.988644e-02  1.170879e-01  1.756197e+02  1.568333e+00  6.640512e-01
</event>
<event>
    12  9999  1.000000e+00  2.272238e+02  7.899262e-03  1.041229e-01
       21    -1     0     0   101   102  0.0000000000e+00  0.0000000000e+00  2.7447138854e+02  2.7447138854e+02  0.0000000000e+00 0. 9.
       21    -1     0     0   103   101  0.0000000000e+00  0.0000000000e+00 -1.9158974339e+02  1.9158974339e+02  0.0000000000e+00 0. 9.
        6     2     1     2   103     0 -8.9063706648e+01  1.2045021587e+02  1.0007606088e+01  2.2729965369e+02  1.7065867116e+02  3.516898e-13 9.
       -6     2     1     2     0   102  8.9063706648e+01 -1.2045021587e+02  7.2874039067e+01  2.3876147825e+02  1.7104332662e+02  3.029588e-14 9.
       24     2     3     0     0     0 -1.5292529717e+01  2.3264120284e-01 -1.5555401923e+01  8.3873856904e+01  8.0987269098e+01  1.068035e-14 9.
        5     1     3     0   103     0 -7.3771176932e+01  1.2021757466e+02  2.5563008011e+01  1.4342579678e+02  4.8000000000e+00 0. 9.
      -24     2     4     0     0     0  1.5991965006e+01  4.7262949850e+00  1.4499202362e+01  8.2430739570e+01  7.9413595485e+01  1.182971e-13 9.
       -5     1     4     0     0   102  7.3071741642e+01 -1.2517651085e+02  5.8374836705e+01  1.5633073868e+02  4.8000000000e+00 0. 9.
       -3     1     5     0     0   104  2.9011814486e+01 -1.6002369653e+01  2.7270646831e+00  3.3248279595e+01  5.0000000000e-01 0. 9.
        4     1     5     0   104     0 -4.4304344202e+01  1.6235010856e+01 -1.8282466606e+01  5.0625577309e+01  1.5000000000e+00 0. 9.
       15     1     7     0     0     0  5.9043199300e-01 -3.6654502952e+01  1.0048332130e+01  3.8052953427e+01  1.7768200000e+00  2.568778e-02 9.
      -16     1     7     0     0     0  1.5401533013e+01  4.1380797937e+01  4.4508702325e+00  4.4377786143e+01  0.0000000000e+00 0. 9.
#pdf   21   21  4.222637e-02  2.947535e-02  2.270792e+02  2.258203e+00  3.230477e+00
</event>
<event>
    12  9999  1.000000e+00  1.840872e+02  7.880260e-03  1.068099e-01
       21    -1     0     0   101   102  0.0000000000e+00  0.0000000000e+00  1.3682163872e+03  1.3682163872e+03  0.0000000000e+00 0. 9.
       21    -1     0     0   103   101  0.0000000000e+00  0.0000000000e+00 -8.6344839906e+01  8.6344839906e+01  0.0000000000e+00 0. 9.
        6     2     1     2   103     0  9.1320274847e+00  6.7879101050e+01  2.6908163911e+01  1.8618945697e+02  1.7103069408e+02  1.922699e-13 9.
       -6     2     1     2     0   102 -9.1320274847e+00 -6.7879101050e+01  1.2549633834e+03  1.2683717701e+03  1.7071287987e+02  9.141230e-14 9.
       24     2     3     0     0     0  9.9232897875e+00 -1.6076470687e+01  4.0646809639e+01  1.0097822234e+02  9.0484880851e+01  3.408621e-14 9.
        5     1     3     0   103     0 -7.9126230287e-01  8.3955571737e+01 -1.3738645728e+01  8.5211234635e+01  4.8000000000e+00 0. 9.
      -24     2     4     0     0     0  4.7808809646e+01 -6.7495240273e+00  8.0688898964e+02  8.1255076749e+02  8.2690203744e+01  7.161883e-14 9.
       -5     1     4     0     0   102 -5.6940837131e+01 -6.1129577022e+01  4.4807439375e+02  4.5582100265e+02  4.8000000000e+00 0. 9.
       -1     1     5     0     0   104  4.4099862852e+01  1.4023691414e+01  2.6302672641e+01  5.3229703291e+01  3.3000000000e-01 0. 9.
        2     1     5     0   104     0 -3.4176573064e+01 -3.0100162100e+01  1.4344136998e+01  4.7748519046e+01  3.3000000000e-01 0. 9.
        3     1     7     0   105     0  4.0009743906e+01  2.6311228394e+01  2.4514282548e+02  2.4977653058e+02  5.0000000000e-01 0. 9.
       -4     1     7     0     0   105  7.7990657401e+00 -3.3060752422e+01  5.6174616416e+02  5.6277423691e+02  1.5000000000e+00 0. 9.
#pdf   21   21  2.104948e-01  1.328382e-02  1.839398e+02  2.445672e-01  6.494280e+00
</event>
<event>
    12  9999  1.000000e+00  2.351043e+02  7.902348e-03  1.037006e-01
       21    -1     0     0   101   102  0.0000000000e+00  0.0000000000e+00  2.9836785514e+02  2.9836785514e+02  0.0000000000e+00 0. 9.
       21    -1     0     0   103   101  0.0000000000e+00  0.0000000000e+00 -2.0177219007e+02  2.0177219007e+02  0.0000000000e+00 0. 9.
        6     2     1     2   103     0 -1.2978608646e+02  9.3795658061e+01 -2.3284170137e+01  2.3607869278e+02  1.7189805961e+02  1.983675e-13 9.
       -6     2     1     2     0   102  1.2978608646e+02 -9.3795658061e+01  1.1987983521e+02  2.6406135243e+02  1.7238088423e+02  6.254349e-14 9.
       24     2     3     0     0     0  5.2070710312e+00  2.5714116658e+01 -1.9802671084e+01  8.4773009858e+01  7.8140821816e+01  9.700919e-14 9.
        5     1     3     0   103     0 -1.3499315750e+02  6.8081541402e+01 -3.4814990525e+00  1.5130568293e+02  4.8000000000e+00 0. 9.
      -24     2     4     0     0     0  1.1384045001e+02 -7.1583771797e+01  1.5569911498e+02  2.1874367358e+02  7.4314842946e+01  1.933078e-13 9.
       -5     1     4     0     0   102  1.5945636458e+01 -2.2211886264e+01 -3.5819279772e+01  4.5317678856e+01  4.8000000000e+00 0. 9.
      -15     1     5     0     0     0 -8.8747375117e+00  4.5190971528e+01 -3.3622088441e+01  5.7048985916e+01  1.7768200000e+00  1.621758e-01 9.
       16     1     5     0     0     0  1.4081808543e+01 -1.9476854870e+01  1.3819417357e+01  2.7724023942e+01  0.0000000000e+00 0. 9.
        1     1     7     0   104     0  8.4374959024e+01 -7.3267457337e+01  7.9821036975e+01  1.3732720364e+02  3.3000000000e-01 0. 9.
       -2     1     7     0     0   104  2.9465490982e+01  1.6836855401e+00  7.5878078005e+01  8.1416469940e+01  3.3000000000e-01 0. 9.
#pdf   21   21  4.590275e-02  3.104188e-02  2.349276e+02  2.063419e+00  3.069656e+00
</event>
<event>
    12  9999  1.000000e+00  2.005980e+02  7.888002e-03  1.056968e-01
       21    -1     0     0   101   102  0.0000000000e+00  0.0000000000e+00  4.9766780633e+01  4.9766780633e+01  0.0000000000e+00 0. 9.
       21    -1     0     0   102   103  0.0000000000e+00  0.0000000000e+00 -8.4514659848e+02  8.4514659848e+02  0.0000000000e+00 0. 9.
        6     2     1     2   101     0 -1.0375282871e+02 -2.7689975668e+01 -3.0499537020e+02  3.6516639081e+02  1.6968480462e+02  4.186835e-15 9.
       -6     2     1     2     0   103  1.0375282871e+02  2.7689975668e+01 -4.9038444765e+02  5.2974698830e+02  1.6918504928e+02  5.141524e-14 9.
       24     2     3     0     0     0 -5.1085307218e+01 -6.6537516916e+01 -1.2476939405e+02  1.7336586485e+02  8.6321327801e+01  3.565857e-14 9.
        5     1     3     0   101     0 -5.2667521488e+01  3.8847541248e+01 -1.8022597615e+02  1.9180052596e+02  4.8000000000e+00 0. 9.
      -24     2     4     0     0     0  2.0300396739e+01 -3.7429424164e+01 -2.7535960955e+02  2.9003139507e+02  8.0512282639e+01  2.121679e-14 9.
       -5     1     4     0     0   103  8.3452431968e+01  6.5119399832e+01 -2.1502483810e+02  2.3971559322e+02  4.8000000000e+00 0. 9.
      -13     1     5     0     0     0 -7.2995777467e+01 -4.4198688573e+01 -7.0358980539e+01  1.1059975093e+02  1.0566000000e-01  2.966971e+05 9.
       14     1     5     0     0     0  2.1910470248e+01 -2.2338828343e+01 -5.4410413512e+01  6.2766113922e+01  0.0000000000e+00 0. 9.
        3     1     7     0   104     0  6.5950643958e+00  2.1560541688e+01 -1.3904143167e+02  1.4085851608e+02  5.0000000000e-01 0. 9.
       -4     1     7     0     0   104  1.3705332343e+01 -5.8989965852e+01 -1.3631817788e+02  1.4917287899e+02  1.5000000000e+00 0. 9.
#pdf   21   21  7.656428e-03  1.300226e-01  2.003870e+02  9.925320e+00  5.592066e-01
</event>
<event>
    12  9999  1.000000e+00  2.018201e+02  7.888550e-03  1.056190e-01
       21    -1     0     0   101   102  0.0000000000e+00  0.0000000000e+00  6.6028367137e+02  6.6028367137e+02  0.0000000000e+00 0. 9.
       21    -1     0     0   103   101  0.0000000000e+00  0.0000000000e+00 -1.0755137767e+02  1.0755137767e+02  0.0000000000e+00 0. 9.
        6     2     1     2   103     0 -9.7727770435e+01  4.6993573070e+01  2.5364114938e+01  2.0303291537e+02  1.6976428768e+02  2.352591e-14 9.
       -6     2     1     2     0   102  9.7727770435e+01 -4.6993573070e+01  5.2736817876e+02  5.6480213367e+02  1.7066089538e+02  3.123136e-13 9.
       24     2     3     0     0     0 -1.3184730633e+02  1.7658459470e+01  2.8522236216e+01  1.5767097813e+02  7.9693701180e+01  2.261159e-13 9.
        5     1     3     0   103     0  3.4119535898e+01  2.9335113600e+01 -3.1581212784e+00  4.5361937236e+01  4.8000000000e+00 0. 9.
      -24     2     4     0     0     0  3.6286676776e+01 -7.7406238765e+01  2.2762226486e+02  2.5727881565e+02  8.4095450625e+01  2.834061e-15 9.
       -5     1     4     0     0   102  6.1441093659e+01  3.0412665694e+01  2.9974591390e+02  3.0752331802e+02  4.8000000000e+00 0. 9.
      -15     1     5     0     0     0 -8.3105202061e+01 -5.6547731244e+00 -1.9293267745e+01  8.5520981860e+01  1.7768200000e+00  7.234995e-02 9.
       16     1     5     0     0     0 -4.8742104272e+01  2.3313232595e+01  4.7815503961e+01  7.2149996271e+01  0.0000000000e+00 0. 9.
       13     1     7     0     0     0 -9.1716828654e+00  1.2092032232e+01  6.0074236568e+01  6.1961779133e+01  1.0566000000e-01  3.324882e+05 9.
      -14     1     7     0     0     0  4.5458359641e+01 -8.9498270997e+01  1.6754802829e+02  1.9531703652e+02  0.0000000000e+00 0. 9.
#pdf   21   21  1.015821e-01  1.654637e-02  2.014424e+02  7.997037e-01  5.422696e+00
</event>
<event>
    12  9999  1.000000e+00  2.566330e+02  7.910290e-03  1.026311e-01
       21    -1     0     0   101   102  0.0000000000e+00  0.0000000000e+00  3.2072354476e+02  3.2072354476e+02  0.0000000000e+00 0. 9.
       21    -1     0     0   102   103  0.0000000000e+00  0.0000000000e+00 -4.7252528574e+02  4.7252528574e+02  0.0000000000e+00 0. 9.
        6     2     1     2   101     0  1.4628137944e+02 -1.2264484183e+02  2.2230456987e+02  3.3972837599e+02  1.7191872635e+02  6.432443e-14 9.
       -6     2     1     2     0   103 -1.4628137944e+02  1.2264484183e+02 -3.7410631085e+02  4.5352045451e+02  1.7112940028e+02  6.526260e-14 9.
       24     2     3     0     0     0  1.3641501586e+02 -6.7998026986e+01  1.6017820588e+02  2.5626374513e+02  1.2954250731e+02  1.197427e-14 9.
        5     1     3     0   101     0  9.8663635849e+00 -5.4646814840e+01  6.2126363990e+01  8.3464630863e+01  4.8000000000e+00 0. 9.
      -24     2     4     0     0     0 -6.8024952514e+01  2.7323719736e+01 -2.7296351947e+02  2.9394887521e+02  8.0764338969e+01  1.560511e-13 9.
       -5     1     4     0     0   103 -7.8256426929e+01  9.5321122090e+01 -1.0114279138e+02  1.5957157930e+02  4.8000000000e+00 0. 9.
       -1     1     5     0     0   104 -2.4415478303e+01  8.6001710505e-01  1.3218865880e+01  2.7779534290e+01  3.3000000000e-01 0. 9.
        2     1     5     0   104     0  1.6083049416e+02 -6.8858044091e+01  1.4695934000e+02  2.2848421084e+02  3.3000000000e-01 0. 9.
       15     1     7     0     0     0 -7.8715374341e+01  4.1259212351e+01 -1.9937417985e+02  2.1829258678e+02  1.7768200000e+00  2.041787e-02 9.
      -16     1     7     0     0     0  1.0690421827e+01 -1.3935492615e+01 -7.3589339623e+01  7.5656288433e+01  0.0000000000e+00 0. 9.
#pdf   21   21  4.934208e-02  7.269620e-02  2.563694e+02  1.897882e+00  1.209228e+00
</event>
<event>
    12  9999  1.000000e+00  1.869204e+02  7.881636e-03  1.066103e-01
       21    -1     0     0   101   102  0.0000000000e+00  0.0000000000e+00  1.4430123101e+02  1.4430123101e+02  0.0000000000e+00 0. 9.
       21    -1     0     0   102   103  0.0000000000e+00  0.0000000000e+00 -2.4587795518e+02  2.4587795518e+02  0.0000000000e+00 0. 9.
        6     2     1     2   101     0 -1.1927576418e+01  7.8138578769e+01 -2.6327619256e+01  1.8721536947e+02  1.6765603615e+02  6.101605e-14 9.
       -6     2     1     2     0   103  1.1927576418e+01 -7.8138578769e+01 -7.5249104921e+01  2.0296381672e+02  1.7112562209e+02  2.169862e-14 9.
       24     2     3     0     0     0 -4.8832051034e+01 -3.6677698396e+00 -2.7331980409e+01  9.7336185780e+01  7.9556735512e+01  1.094413e-13 9.
        5     1     3     0   101     0  3.6904474616e+01  8.1806348608e+01  1.0043611531e+00  8.9879183689e+01  4.8000000000e+00 0. 9.
      -24     2     4     0     0     0 -1.1516765313e+00 -5.1994433118e+01  2.5093925952e+01  9.8339024946e+01  7.9599693929e+01  1.143741e-13 9.
       -5     1     4     0     0   103  1.3079252949e+01 -2.6144145651e+01 -1.0034303087e+02  1.0462479178e+02  4.8000000000e+00 0. 9.
       -1     1     5     0     0   104 -2.5752011809e+01 -2.9187099740e-01 -5.5247831809e+01  6.0956403441e+01  3.3000000000e-01 0. 9.
        2     1     5     0   104     0 -2.3080039225e+01 -3.3758988422e+00  2.7915851400e+01  3.6379782339e+01  3.3000000000e-01 0. 9.
        3     1     7     0   105     0  3.8152960417e+01 -3.1644326428e+01  5.3743319751e+00  4.9861259790e+01  5.0000000000e-01 0. 9.
       -4     1     7     0     0   105 -3.9304636948e+01 -2.0350106690e+01  1.9719593977e+01  4.8477765156e+01  1.5000000000e+00 0. 9.
#pdf   21   21  2.220019e-02  3.782738e-02  1.853549e+02  4.216384e+00  2.554221e+00
</event>
<event>
    12  9999  1.000000e+00  1.753631e+02  7.875891e-03  1.074497e-01
       21    -1     0     0   101   102  0.0000000000e+00  0.0000000000e+00  3.6293195620e+02  3.6293195620e+02  0.0000000000e+00 0. 9.
       21    -1     0     0   102   103  0.0000000000e+00  0.0000000000e+00 -4.8625112976e+02  4.8625112976e+02  0.0000000000e+00 0. 9.
        6     2     1     2   101     0  4.8368822564e+01 -8.4939184015e-01  3.2427359681e+02  3.6778126878e+02  1.6664162630e+02  2.108467e-13 9.
       -6     2     1     2     0   103 -4.8368822564e+01  8.4939184015e-01 -4.4759277038e+02  4.8140181717e+02  1.7049386212e+02  1.278506e-13 9.
       24     2     3     0     0     0 -1.6842719611e+01  1.1232662055e+01  2.6892419809e+02  2.8126469697e+02  7.9873371932e+01  1.290718e-13 9.
        5     1     3     0   101     0  6.5211542174e+01 -1.2082053895e+01  5.5349398725e+01  8.6516571813e+01  4.8000000000e+00 0. 9.
      -24     2     4     0     0     0 -3.6282466880e+01  6.4581592115e+01 -2.9798860001e+02  3.1826898437e+02  8.3730169212e+01  5.100864e-14 9.
       -5     1     4     0     0   103 -1.2086355684e+01 -6.3732200275e+01 -1.4960417037e+02  1.6313283280e+02  4.8000000000e+00 0. 9.
       -3     1     5     0     0   104  1.9462858163e+01  7.7880754587e+00  1.7810311732e+01  2.7512073190e+01  5.0000000000e-01 0. 9.
        4     1     5     0   104     0 -3.6305577774e+01  3.4445865960e+00  2.5111388636e+02  2.5375262378e+02  1.5000000000e+00 0. 9.
        1     1     7     0   105     0 -3.3171188634e+01  2.2095186794e+01 -2.5371876055e+02  2.5683037863e+02  3.3000000000e-01 0. 9.
       -2     1     7     0     0   105 -3.1112782461e+00  4.2486405321e+01 -4.4269839458e+01  6.1438605739e+01  3.3000000000e-01 0. 9.
#pdf   21   21  5.583569e-02  7.480787e-02  1.735215e+02  1.698650e+00  1.206712e+00
</event>
<event>
    12  9999  1.000000e+00  1.993402e+02  7.887434e-03  1.057776e-01
       21    -1     0     0   101   102  0.0000000000e+00  0.0000000000e+00  2.1132433799e+01  2.1132433799e+01  0.0000000000e+00 0. 9.
       21    -1     0     0   103   101  0.0000000000e+00  0.0000000000e+00 -2.1587684774e+03  2.1587684774e+03  0.0000000000e+00 0. 9.
        6     2     1     2   103     0 -9.1968780761e+01 -4.7216786444e+01 -1.4601410637e+03  1.4736823844e+03  1.7041174394e+02  3.808389e-13 9.
       -6     2     1     2     0   102  9.1968780761e+01  4.7216786444e+01 -6.7749497986e+02  7.0621852681e+02  1.7046254227e+02  9.044659e-15 9.
       24     2     3     0     0     0  1.2163652556e+01  3.3436984441e+00 -6.3539948064e+02  6.4084287693e+02  8.2389065658e+01  1.650660e-13 9.
        5     1     3     0   103     0 -1.0413243332e+02 -5.0560484888e+01 -8.2474158309e+02  8.3283950746e+02  4.8000000000e+00 0. 9.
      -24     2     4     0     0     0  4.4571075061e+01 -2.0155219565e+01 -2.0891897715e+02  2.3043281873e+02  8.4019826982e+01  8.108372e-14 9.
       -5     1     4     0     0   102  4.7397705700e+01  6.7372006009e+01 -4.6857600271e+02  4.7578570808e+02  4.8000000000e+00 0. 9.
      -13     1     5     0     0     0 -6.5955151159e+00  4.3511300041e+00 -3.4637518814e+00  8.6279715512e+00  1.0566000000e-01  1.616783e+05 9.
       14     1     5     0     0     0  1.8759167672e+01 -1.0074315600e+00 -6.3193572876e+02  6.3221490537e+02  0.0000000000e+00 0. 9.
        3     1     7     0   104     0  3.8737588491e+01  1.2282176717e+01 -3.5682439940e+01  5.4082706544e+01  5.0000000000e-01 0. 9.
       -4     1     7     0     0   104  5.8334865696e+00 -3.2437396282e+01 -1.7323653721e+02  1.7635011218e+02  1.5000000000e+00 0. 9.
#pdf   21   21  3.251144e-03  3.321182e-01  1.993184e+02  1.803802e+01  7.323346e-02
</event>
<event>
    12  9999  1.000000e+00  2.073293e+02  7.890981e-03  1.052754e-01
       21    -1     0     0   101   102  0.0000000000e+00  0.0000000000e+00  3.6799512406e+02  3.6799512406e+02  0.0000000000e+00 0. 9.
       21    -1     0     0   103   101  0.0000000000e+00  0.0000000000e+00 -1.1873935699e+02  1.1873935699e+02  0.0000000000e+00 0. 9.
        6     2     1     2   103     0 -6.6349393831e+01 -5.0366924173e+01  9.0427519515e+01  2.1210737206e+02  1.7283903461e+02  6.484652e-13 9.
       -6     2     1     2     0   102  6.6349393831e+01  5.0366924173e+01  1.5882824756e+02  2.7462710898e+02  2.0797732486e+02  1.564621e-13 9.
       24     2     3     0     0     0 -1.3485831351e+01  3.7283498981e+01  2.9275967340e+01  9.2777135952e+01  7.8603993208e+01  2.086629e-13 9.
        5     1     3     0   103     0 -5.2863562480e+01 -8.7650423154e+01  6.1151552175e+01  1.1933023611e+02  4.8000000000e+00 0. 9.
      -24     2     4     0     0     0 -2.9819700333e+01  7.3521939932e+01  1.2775564344e+02  1.7083310071e+02  8.1041678714e+01  4.524353e-14 9.
       -5     1     4     0     0   102  9.6169094163e+01 -2.3155015759e+01  3.1072604120e+01  1.0379400827e+02  4.8000000000e+00 0. 9.
       -1     1     5     0     0   104  2.9020066846e+01  2.8771440311e+01  2.7752902412e+01  4.9399317299e+01  3.3000000000e-01 0. 9.
        2     1     5     0   104     0 -4.2505898196e+01  8.5120586696e+00  1.5230649278e+00  4.3377818652e+01  3.3000000000e-01 0. 9.
        3     1     7     0   105     0 -1.3801296655e+01  8.0977661177e+01  1.2913345330e+02  1.5304756176e+02  5.0000000000e-01 0. 9.
       -4     1     7     0     0   105 -1.6018403678e+01 -7.4557212453e+00 -1.3778098651e+00  1.7785538949e+01  1.5000000000e+00 0. 9.
#pdf   21   21  5.661463e-02  1.826759e-02  1.918656e+02  1.661353e+00  4.991087e+00
</event>
<event>
    12  9999  1.000000e+00  2.308769e+02  7.900706e-03  1.039249e-01
       21    -1     0     0   101   102  0.0000000000e+00  0.0000000000e+00  1.6497138212e+02  1.6497138212e+02  0.0000000000e+00 0. 9.
       21    -1     0     0   102   103  0.0000000000e+00  0.0000000000e+00 -5.0110401095e+02  5.0110401095e+02  0.0000000000e+00 0. 9.
        6     2     1     2   101     0 -1.4578098551e+02  5.2504051675e+01  3.0485372955e+01  2.3274249448e+02  1.7097058107e+02  1.003346e-13 9.
       -6     2     1     2     0   103  1.4578098551e+02 -5.2504051675e+01 -3.6661800178e+02  4.3333289859e+02  1.7134722230e+02  1.862662e-13 9.
       24     2     3     0     0     0 -1.7339390718e+02  2.2467257930e+01  3.4307826968e+01  1.9148314916e+02  7.0132336995e+01  9.408719e-15 9.
        5     1     3     0   101     0  2.7612921668e+01  3.0036793745e+01 -3.8224540135e+00  4.1259345320e+01  4.8000000000e+00 0. 9.
      -24     2     4     0     0     0  2.6155482723e+00 -1.6128057059e+01 -1.0700975305e+02  1.3460386047e+02  8.0000979300e+01  1.741510e-13 9.
       -5     1     4     0     0   103  1.4316543724e+02 -3.6375994616e+01 -2.5960824873e+02  2.9872903812e+02  4.8000000000e+00 0. 9.
      -11     1     5     0     0     0 -3.7291248711e+01 -6.4838695872e+00 -1.9150740753e+01  4.2419673112e+01  5.1100000000e-04 0. 9.
       12     1     5     0     0     0 -1.3610265847e+02  2.8951127517e+01  5.3458567721e+01  1.4906347604e+02  0.0000000000e+00 0. 9.
       13     1     7     0     0     0 -2.0355031006e+01 -7.1080110949e+00  3.0822340576e+00  2.1779863172e+01  1.0566000000e-01  2.278345e+05 9.
      -14     1     7     0     0     0  2.2970579278e+01 -9.0200459640e+00 -1.1009198711e+02  1.1282399730e+02  0.0000000000e+00 0. 9.
#pdf   21   21  2.538021e-02  7.709292e-02  2.307373e+02  3.714042e+00  1.134204e+00
</event>
<event>
    12  9999  1.000000e+00  2.953837e+02  7.923070e-03  1.009604e-01
       21    -1     0     0   101   102  0.0000000000e+00  0.0000000000e+00  1.1129832757e+03  1.1129832757e+03  0.0000000000e+00 0. 9.
       21    -1     0     0   102   103  0.0000000000e+00  0.0000000000e+00 -5.3514943583e+02  5.3514943583e+02  0.0000000000e+00 0. 9.
        6     2     1     2   101     0  2.0629836910e+01  2.4082262835e+02  1.0501473667e+03  1.0907341436e+03  1.6873159646e+02  1.959215e-13 9.
       -6     2     1     2     0   103 -2.0629836910e+01 -2.4082262835e+02 -4.7231352686e+02  5.5739856795e+02  1.7085656968e+02  5.285443e-13 9.
       24     2     3     0     0     0 -2.2306296433e+01  1.5061345444e+02  4.3590214837e+02  4.6839867547e+02  7.8769617918e+01  5.571394e-14 9.
        5     1     3     0   101     0  4.2936133343e+01  9.0209173913e+01  6.1424521837e+02  6.2233546813e+02  4.8000000000e+00 0. 9.
      -24     2     4     0     0     0 -4.2823085230e+01 -1.8492899826e+02 -4.4659525374e+02  4.9198971742e+02  8.1080271040e+01  9.729457e-14 9.
       -3     1     4     0     0   103  2.2193248320e+01 -5.5893630092e+01 -2.5718273113e+01  6.5408850530e+01  5.0000000000e-01 0. 9.
       -1     1     5     0     0   104 -4.8438982550e+01  9.9572993849e+01  3.2829965745e+02  3.4647061941e+02  3.3000000000e-01 0. 9.
        2     1     5     0   104     0  2.6132686117e+01  5.1040460590e+01  1.0760249092e+02  1.2192805606e+02  3.3000000000e-01 0. 9.
       13     1     7     0     0     0 -1.6193666018e+01 -1.0780883606e+02 -1.5712614546e+02  1.9124229841e+02  1.0566000000e-01  1.301845e+06 9.
      -14     1     7     0     0     0 -2.6629419212e+01 -7.7120162197e+01 -2.8946910829e+02  3.0074741900e+02  0.0000000000e+00 0. 9.
#pdf   21   21  1.712282e-01  8.233068e-02  2.947736e+02  3.356377e-01  1.020215e+00
</event>
<event>
    12  9999  1.000000e+00  1.937248e+02  7.884858e-03  1.061458e-01
       21    -1     0     0   101   102  0.0000000000e+00  0.0000000000e+00  1.1132339511e+03  1.1132339511e+03  0.0000000000e+00 0. 9.
       21    -1     0     0   103   101  0.0000000000e+00  0.0000000000e+00 -5.2035209060e+01  5.2035209060e+01  0.0000000000e+00 0. 9.
        6     2     1     2   103     0 -9.0609805046e+01  1.0311714202e+01  1.8465638067e+02  2.6754965330e+02  1.7078749907e+02  2.374165e-13 9.
       -6     2     1     2     0   102  9.0609805046e+01 -1.0311714202e+01  8.7654236140e+02  8.9771950688e+02  1.7104775210e+02  7.545234e-14 9.
       24     2     3     0     0     0 -1.0173848643e+02 -2.7806463624e+01  7.2881889772e+01  1.4883394311e+02  7.5603265304e+01  1.601062e-15 9.
        5     1     3     0   103     0  1.1128681387e+01  3.8118177826e+01  1.1177449090e+02  1.1871571019e+02  4.8000000000e+00 0. 9.
      -24     2     4     0     0     0  1.3029735524e+02 -9.5708368389e+00  6.7453111163e+02  6.9178933529e+02  8.0692392256e+01  9.124733e-14 9.
       -5     1     4     0     0   102 -3.9687550194e+01 -7.4087736325e-01  2.0201124977e+02  2.0593017159e+02  4.8000000000e+00 0. 9.
       -1     1     5     0     0   104 -4.3825250254e+00 -2.4714224921e+01 -3.1073976253e+00  2.5293561613e+01  3.3000000000e-01 0. 9.
        2     1     5     0   104     0 -9.7355961408e+01 -3.0922387028e+00  7.5989287398e+01  1.2354038150e+02  3.3000000000e-01 0. 9.
        1     1     7     0   105     0  2.3714539907e+01  1.8006820504e+01  5.4920472410e+01  6.2473931983e+01  3.3000000000e-01 0. 9.
       -2     1     7     0     0   105  1.0658281533e+02 -2.7577657343e+01  6.1961063922e+02  6.2931540331e+02  3.3000000000e-01 0. 9.
#pdf   21   21  1.712668e-01  8.005417e-03  1.936100e+02  3.578051e-01  9.596700e+00
</event>
<event>
    12  9999  1.000000e+00  2.644775e+02  7.913023e-03  1.022687e-01
       21    -1     0     0   101   102  0.0000000000e+00  0.0000000000e+00  5.3682684567e+02  5.3682684567e+02  0.0000000000e+00 0. 9.
       21    -1     0     0   103   101  0.0000000000e+00  0.0000000000e+00 -1.3466057833e+02  1.3466057833e+02  0.0000000000e+00 0. 9.
        6     2     1     2   103     0 -5.8944291973e+01  1.9270120606e+02  2.6101830086e+02  3.7112766982e+02  1.7028508317e+02  2.022539e-13 9.
       -6     2     1     2     0   102  5.8944291973e+01 -1.9270120606e+02  1.4114796648e+02  3.0035975418e+02  1.7229349703e+02  5.903462e-14 9.
       24     2     3     0     0     0  3.6555476267e+00  1.4159210178e+02  1.0016832130e+02  1.9105369507e+02  8.0038337639e+01  4.817859e-15 9.
        5     1     3     0   103     0 -6.2599839600e+01  5.1109104273e+01  1.6084997956e+02  1.8007397475e+02  4.8000000000e+00 0. 9.
      -24     2     4     0     0     0  2.4137849762e+00 -1.8297034545e+02  7.7478645631e+01  2.1452729944e+02  8.0839643786e+01  2.147212e-13 9.
       -5     1     4     0     0   102  5.6530506997e+01 -9.7308606115e+00  6.3669320845e+01  8.5832454738e+01  4.8000000000e+00 0. 9.
       -3     1     5     0     0   104 -2.8880924635e+01  1.0797960483e+02  5.0023433946e+01  1.2245936800e+02  5.0000000000e-01 0. 9.
        4     1     5     0   104     0  3.2536472262e+01  3.3612496957e+01  5.0144887358e+01  6.8594327077e+01  1.5000000000e+00 0. 9.
       15     1     7     0     0     0  3.8945768152e+01 -1.2930754874e+02  5.5032853024e+01  1.4583890777e+02  1.7768200000e+00  1.033893e-01 9.
      -16     1     7     0     0     0 -3.6531983176e+01 -5.3662796705e+01  2.2445792607e+01  6.8688391674e+01  0.0000000000e+00 0. 9.
#pdf   21   21  8.258875e-02  2.071701e-02  2.638280e+02  1.026434e+00  4.445548e+00
</event>
<event>
    12  9999  1.000000e+00  2.185551e+02  7.895744e-03  1.046090e-01
       21    -1     0     0   101   102  0.0000000000e+00  0.0000000000e+00  6.0612718512e+02  6.0612718512e+02  0.0000000000e+00 0. 9.
       21    -1     0     0   103   101  0.0000000000e+00  0.0000000000e+00 -1.5603038018e+02  1.5603038018e+02  0.0000000000e+00 0. 9.
        6     2     1     2   103     0 -1.2227735532e+02 -5.9889722643e+01 -4.2796898036e+01  2.2317495501e+02  1.7157201275e+02  1.694564e-14 9.
       -6     2     1     2     0   102  1.2227735532e+02  5.9889722643e+01  4.9289370297e+02  5.3898261029e+02  1.7035117041e+02  4.163798e-14 9.
       24     2     3     0     0     0 -1.4891216647e+02 -7.1337412694e+01 -1.6762057725e+01  1.8391536151e+02  7.9246664583e+01  9.701170e-14 9.
        5     1     3     0   103     0  2.6634811144e+01  1.1447690051e+01 -2.6034840311e+01  3.9259593505e+01  4.8000000000e+00 0. 9.
      -24     2     4     0     0     0  4.1104529915e+01  8.6957596598e+01  3.5627453619e+02  3.7770789399e+02  8.0501565565e+01  6.332378e-14 9.
       -5     1     4     0     0   102  8.1172825407e+01 -2.7067873955e+01  1.3661916678e+02  1.6127471630e+02  4.8000000000e+00 0. 9.
      -15     1     5     0     0     0 -2.7849377637e+01  1.1643519781e+01 -2.1442314480e+01  3.7068710892e+01  1.7768200000e+00  1.514907e-01 9.
       16     1     5     0     0     0 -1.2106278883e+02 -8.2980932475e+01  4.6802567546e+00  1.4684665061e+02  0.0000000000e+00 0. 9.
        1     1     7     0   104     0  4.3525477010e+01  4.9875879861e+01  3.1619747177e+02  3.2305265917e+02  3.3000000000e-01 0. 9.
       -2     1     7     0     0   104 -2.4209470951e+00  3.7081716736e+01  4.0077064421e+01  5.4655234823e+01  3.3000000000e-01 0. 9.
#pdf   21   21  9.325034e-02  2.400467e-02  2.180781e+02  8.909927e-01  3.914927e+00
</event>
<event>
    12  9999  1.000000e+00  1.749267e+02  7.875667e-03  1.074827e-01
       21    -1     0     0   101   102  0.0000000000e+00  0.0000000000e+00  1.2401019470e+03  1.2401019470e+03  0.0000000000e+00 0. 9.
       21    -1     0     0   102   103  0.0000000000e+00  0.0000000000e+00 -2.5110754952e+01  2.5110754952e+01  0.0000000000e+00 0. 9.
        6     2     1     2   101     0  2.3067462089e+01  3.0258722467e+01  6.8932690951e+02  7.1106775586e+02  1.7028818855e+02  5.732777e-13 9.
       -6     2     1     2     0   103 -2.3067462089e+01 -3.0258722467e+01  5.2566428253e+02  5.5414494608e+02  1.7118990989e+02  9.267448e-14 9.
       24     2     3     0     0     0  5.5595102524e+01  1.5519482222e+01  2.2612691525e+02  2.4646839374e+02  7.9256656268e+01  1.795037e-13 9.
        5     1     3     0   101     0 -3.2527640435e+01  1.4739240245e+01  4.6319999426e+02  4.6459936212e+02  4.8000000000e+00 0. 9.
      -24     2     4     0     0     0 -6.2383954046e+01 -2.1332655949e+01  4.8792484229e+02  4.9871240552e+02  7.9350940548e+01  9.789873e-14 9.
       -5     1     4     0     0   103  3.9316491956e+01 -8.9260665182e+00  3.7739440239e+01  5.5432540559e+01  4.8000000000e+00 0. 9.
       -1     1     5     0     0   104 -1.4531820399e+01  1.0411955505e+01  1.0417440146e+02  1.0569766999e+02  3.3000000000e-01 0. 9.
        2     1     5     0   104     0  7.0126922923e+01  5.1075267170e+00  1.2195251379e+02  1.4077072376e+02  3.3000000000e-01 0. 9.
       11     1     7     0     0     0  1.1935402005e+01 -1.9522280558e+01  2.0158285453e+02  2.0287735334e+02  5.1100000000e-04 0. 9.
      -12     1     7     0     0     0 -7.4319356051e+01 -1.8103753909e+00  2.8634198776e+02  2.9583505218e+02  0.0000000000e+00 0. 9.
#pdf   21   21  1.907849e-01  3.863193e-03  1.744871e+02  2.989442e-01  1.596445e+01
</event>
<event>
    12  9999  1.000000e+00  1.751076e+02  7.875760e-03  1.074690e-01
        1    -1     0     0   101     0  0.0000000000e+00  0.0000000000e+00  2.7916440178e+02  2.7916440178e+02  0.0000000000e+00 0. 9.
       -1    -1     0     0     0   102  0.0000000000e+00  0.0000000000e+00 -1.3524966572e+02  1.3524966572e+02  0.0000000000e+00 0. 9.
        6     2     1     2   101     0 -1.8084782460e+00  4.2437689271e+01 -1.7803142242e+01  1.7617844426e+02  1.7005194584e+02  1.189581e-13 9.
       -6     2     1     2     0   102  1.8084782460e+00 -4.2437689271e+01  1.6171787830e+02  2.3823562323e+02  1.6970360029e+02  1.207445e-13 9.
       24     2     3     0     0     0 -1.7456396796e+01 -1.8760601123e+01 -5.6899891950e+01  1.0173595680e+02  8.0348747706e+01  1.034799e-13 9.
        5     1     3     0   101     0  1.5647918550e+01  6.1198290394e+01  3.9096749708e+01  7.4442487464e+01  4.8000000000e+00 0. 9.
      -24     2     4     0     0     0 -3.8572540470e+01  1.7349803300e+00  2.1071850836e+01  8.5310162784e+01  7.3095485097e+01  1.939317e-14 9.
       -5     1     4     0     0   102  4.0381018716e+01 -4.4172669601e+01  1.4064602746e+02  1.5292546045e+02  4.8000000000e+00 0. 9.
       -1     1     5     0     0   103 -3.3626813205e+01 -3.4894377052e+01 -9.8770703145e+00  4.9457512414e+01  3.3000000000e-01 0. 9.
        2     1     5     0   103     0  1.6170416409e+01  1.6133775929e+01 -4.7022821635e+01  5.2278444383e+01  3.3000000000e-01 0. 9.
        3     1     7     0   104     0  1.3977631137e+01  1.5125452342e+01  2.3189606487e+01  3.1018725470e+01  5.0000000000e-01 0. 9.
       -4     1     7     0     0   104 -5.2550171607e+01 -1.3390472012e+01 -2.1177556510e+00  5.4291437314e+01  1.5000000000e+00 0. 9.
#pdf    1   -1  4.294837e-02  2.080764e-02  1.749387e+02  4.501417e-01  3.556553e-01
</event>
<event>
    12  9999  1.000000e+00  1.937866e+02  7.884886e-03  1.061417e-01
       21    -1     0     0   101   102  0.0000000000e+00  0.0000000000e+00  6.2102090782e+02  6.2102090782e+02  0.0000000000e+00 0. 9.
       21    -1     0     0   103   101  0.0000000000e+00  0.0000000000e+00 -6.0886299870e+01  6.0886299870e+01  0.0000000000e+00 0. 9.
        6     2     1     2   103     0 -5.6057330271e+01  8.2294887829e+01  2.4730787244e+02  3.1192811055e+02  1.6193544869e+02  4.072512e-13 9.
       -6     2     1     2     0   102  5.6057330271e+01 -8.2294887829e+01  3.1282673551e+02  3.6997909714e+02  1.7061387115e+02  9.827176e-14 9.
       24     2     3     0     0     0 -1.9939780540e+01  4.3249869585e+01  6.3047497667e+01  1.2008464165e+02  9.0427806187e+01  7.358481e-14 9.
        5     1     3     0   103     0 -3.6117549731e+01  3.9045018244e+01  1.8426037477e+02  1.9184346890e+02  4.8000000000e+00 0. 9.
      -24     2     4     0     0     0  4.6174348599e+01 -6.0402073373e+01  3.2460066207e+02  3.4280127533e+02  7.9791250241e+01  4.034466e-14 9.
       -5     1     4     0     0   102  9.8829816723e+00 -2.1892814455e+01 -1.1773926560e+01  2.7177821806e+01  4.8000000000e+00 0. 9.
      -11     1     5     0     0     0 -4.3821127207e+01  2.1056851000e+01  7.1446050622e+01  8.6418865495e+01  5.1100000000e-04 0. 9.
       12     1     5     0     0     0  2.3881346667e+01  2.2193018585e+01 -8.3985529555e+00  3.3665776158e+01  0.0000000000e+00 0. 9.
        1     1     7     0   104     0  1.1234528428e+01 -2.0186867725e+01  1.2663636177e+01  2.6347691337e+01  3.3000000000e-01 0. 9.
       -2     1     7     0     0   104  3.4939820171e+01 -4.0215205648e+01  3.1193702590e+02  3.1645358400e+02  3.3000000000e-01 0. 9.
#pdf   21   21  9.554168e-02  9.367123e-03  1.900999e+02  8.745366e-01  8.527968e+00
</event>
<event>
    12  9999  1.000000e+00  2.344635e+02  7.902101e-03  1.037343e-01
       21    -1     0     0   101   102  0.0000000000e+00  0.0000000000e+00  6.9295588232e+01  6.9295588232e+01  0.0000000000e+00 0. 9.
       21    -1     0     0   103   101  0.0000000000e+00  0.0000000000e+00 -9.4417712205e+02  9.4417712205e+02  0.0000000000e+00 0. 9.
        6     2     1     2   103     0 -1.0491057434e+02 -1.2260231550e+02 -6.3999252607e+02  6.8158780599e+02  1.7009981622e+02  3.937800e-13 9.
       -6     2     1     2     0   102  1.0491057434e+02  1.2260231550e+02 -2.3488900776e+02  3.3188490430e+02  1.7010933943e+02  4.353745e-13 9.
       24     2     3     0     0     0 -8.8385400057e+01 -8.9883668743e+00 -3.3730640941e+02  3.5782379328e+02  7.9809044149e+01  6.100724e-16 9.
        5     1     3     0   103     0 -1.6525174282e+01 -1.1361394863e+02 -3.0268611666e+02  3.2376401271e+02  4.8000000000e+00 0. 9.
      -24     2     4     0     0     0  3.0068400605e+01  1.2975167847e+02 -1.4918278381e+02  2.1777503976e+02  8.6202425592e+01  2.379560e-14 9.
       -5     1     4     0     0   102  7.4842173734e+01 -7.1493629737e+00 -8.5706223948e+01  1.1410986453e+02  4.8000000000e+00 0. 9.
      -15     1     5     0     0     0  7.4167570807e+00 -7.1426466463e+00 -1.1845570628e+02  1.1891567233e+02  1.7768200000e+00  9.363627e-03 9.
       16     1     5     0     0     0 -9.5802157137e+01 -1.8457202280e+00 -2.1885070313e+02  2.3890812095e+02  0.0000000000e+00 0. 9.
        3     1     7     0   104     0  5.1008629392e+00 -3.3653546547e+00  8.1321898313e+00  1.0184641679e+01  5.0000000000e-01 0. 9.
       -4     1     7     0     0   104  2.4967537666e+01  1.3311703313e+02 -1.5731497364e+02  2.0759039809e+02  1.5000000000e+00 0. 9.
#pdf   21   21  1.066086e-02  1.452580e-01  2.344600e+02  7.733532e+00  4.599060e-01
</event>
<event>
    12  9999  1.000000e+00  1.780592e+02  7.877263e-03  1.072478e-01
       21    -1     0     0   101   102  0.0000000000e+00  0.0000000000e+00  2.1826736648e+02  2.1826736648e+02  0.0000000000e+00 0. 9.
       21    -1     0     0   102   103  0.0000000000e+00  0.0000000000e+00 -1.5342203830e+02  1.5342203830e+02  0.0000000000e+00 0. 9.
        6     2     1     2   101     0  4.9923810256e+01 -5.0864951861e+00  7.4944227067e+01  1.9154975962e+02  1.6898643133e+02  5.797356e-14 9.
       -6     2     1     2     0   103 -4.9923810256e+01  5.0864951861e+00 -1.0098898888e+01  1.8013964517e+02  1.7271376535e+02  5.557708e-14 9.
       24     2     3     0     0     0  2.6920266925e+01 -6.5912658324e+01  2.6808217943e+01  1.1049977194e+02  8.0139501815e+01  1.447421e-13 9.
        5     1     3     0   101     0  2.3003543331e+01  6.0826163138e+01  4.8136009124e+01  8.1049987676e+01  4.8000000000e+00 0. 9.
      -24     2     4     0     0     0 -6.6631563292e+01  2.6388974897e+01 -6.1967532614e+01  1.2143411036e+02  7.5961337778e+01  2.108897e-13 9.
       -5     1     4     0     0   103  1.6707753036e+01 -2.1302479711e+01  5.1868633726e+01  5.8705534815e+01  4.8000000000e+00 0. 9.
      -13     1     5     0     0     0 -8.6357713669e+00 -4.4999142866e+00 -2.2211063527e+01  2.4252180989e+01  1.0566000000e-01  4.682584e+05 9.
       14     1     5     0     0     0  3.5556038292e+01 -6.1412744037e+01  4.9019281470e+01  8.6247590952e+01  0.0000000000e+00 0. 9.
        3     1     7     0   104     0 -1.5705241958e+01 -1.9296826902e+01 -4.4239440161e+01  5.0758252720e+01  5.0000000000e-01 0. 9.
       -2     1     7     0     0   104 -5.0926321334e+01  4.5685801799e+01 -1.7728092453e+01  7.0675857637e+01  3.3000000000e-01 0. 9.
#pdf   21   21  3.357959e-02  2.360339e-02  1.762801e+02  2.878732e+00  3.996937e+00
</event>
<event>
    12  9999  1.000000e+00  2.020414e+02  7.888649e-03  1.056050e-01
       21    -1     0     0   101   102  0.0000000000e+00  0.0000000000e+00  2.8740221337e+02  2.8740221337e+02  0.0000000000e+00 0. 9.
       21    -1     0     0   103   101  0.0000000000e+00  0.0000000000e+00 -1.4231450815e+02  1.4231450815e+02  0.0000000000e+00 0. 9.
        6     2     1     2   103     0 -3.7544557882e+01 -1.0064576060e+02  6.2835675181e+01  2.1112807112e+02  1.7055080588e+02  1.785106e-13 9.
       -6     2     1     2     0   102  3.7544557882e+01  1.0064576060e+02  8.2252030044e+01  2.1858865040e+02  1.7168703703e+02  5.189306e-13 9.
       24     2     3     0     0     0 -5.6795428232e-01 -4.9362630365e+01 -2.9181003514e+01  9.9381313589e+01  8.1167251252e+01  1.519190e-13 9.
        5     1     3     0   103     0 -3.6976603600e+01 -5.1283130236e+01  9.2016678696e+01  1.1174675753e+02  4.8000000000e+00 0. 9.
      -24     2     4     0     0     0  5.1466755696e+01  8.7180014356e+01 -7.2428792992e+00  1.2689605139e+02  7.6164077582e+01  1.426315e-14 9.
       -5     1     4     0     0   102 -1.3922197814e+01  1.3465746245e+01  8.9494909344e+01  9.1692599005e+01  4.8000000000e+00 0. 9.
       -1     1     5     0     0   104  6.4065520957e+00 -2.5809728757e+01  2.7090964748e+01  3.7963341255e+01  3.3000000000e-01 0. 9.
        4     1     5     0   104     0 -6.9745063780e+00 -2.3552901608e+01 -5.6271968263e+01  6.1417972333e+01  1.5000000000e+00 0. 9.
        1     1     7     0   105     0  1.9336954304e+01 -1.1502026589e+01 -5.1994671435e+00  2.3094539960e+01  3.3000000000e-01 0. 9.
       -2     1     7     0     0   105  3.2129801392e+01  9.8682040946e+01 -2.0434121557e+00  1.0380151143e+02  3.3000000000e-01 0. 9.
#pdf   21   21  4.421573e-02  2.189454e-02  2.015608e+02  2.166676e+00  4.260513e+00
</event>
<event>
    12  9999  1.000000e+00  3.372668e+02  7.935158e-03  9.943478e-02
       21    -1     0     0   101   102  0.0000000000e+00  0.0000000000e+00  1.0134191501e+03  1.0134191501e+03  0.0000000000e+00 0. 9.
       21    -1     0     0   103   101  0.0000000000e+00  0.0000000000e+00 -2.3884772844e+02  2.3884772844e+02  0.0000000000e+00 0. 9.
        6     2     1     2   103     0  5.7169983327e+01  2.8468549355e+02 -6.8431045702e+01  3.4439963671e+02  1.7208737465e+02  1.416129e-13 9.
       -6     2     1     2     0   102 -5.7169983327e+01 -2.8468549355e+02  8.4300246737e+02  9.0786724185e+02  1.7104248475e+02  6.154633e-17 9.
       24     2     3     0     0     0  1.0608826953e+01  2.3367971894e+02 -1.0208386567e+02  2.6742507845e+02  7.9851729478e+01  1.074428e-13 9.
        5     1     3     0   103     0  4.6561156373e+01  5.1005774613e+01  3.3652819968e+01  7.6974558255e+01  4.8000000000e+00 0. 9.
      -24     2     4     0     0     0 -4.4935587355e+01 -2.3779450983e+02  8.1045891106e+02  8.4929619220e+02  7.6778510359e+01  1.434414e-13 9.
       -5     1     4     0     0   102 -1.2234395972e+01 -4.6890983727e+01  3.2543556317e+01  5.8571049652e+01  4.8000000000e+00 0. 9.
       -1     1     5     0     0   104 -1.6149663698e+01  3.0809539813e+01 -4.1220825535e+01  5.3937971215e+01  3.3000000000e-01 0. 9.
        2     1     5     0   104     0  2.6758490651e+01  2.0287017913e+02 -6.0863040135e+01  2.1348710724e+02  3.3000000000e-01 0. 9.
        3     1     7     0   105     0  1.3182500481e+01 -9.7002494311e+01  2.4932806393e+02  2.6785816337e+02  5.0000000000e-01 0. 9.
       -4     1     7     0     0   105 -5.8118087836e+01 -1.4079201552e+02  5.6113084713e+02  5.8143802883e+02  1.5000000000e+00 0. 9.
#pdf   21   21  1.559106e-01  3.674580e-02  3.370011e+02  3.886182e-01  2.553533e+00
</event>
<event>
    12  9999  1.000000e+00  1.848275e+02  7.880622e-03  1.067574e-01
       21    -1     0     0   101   102  0.0000000000e+00  0.0000000000e+00  3.2720954573e+02  3.2720954573e+02  0.0000000000e+00 0. 9.
       21    -1     0     0   103   101  0.0000000000e+00  0.0000000000e+00 -1.6006051466e+02  1.6006051466e+02  0.0000000000e+00 0. 9.
        6     2     1     2   103     0  6.4041287075e+01 -2.4046864955e+01 -6.0135420525e+01  1.9423391542e+02  1.7155467622e+02  6.344971e-13 9.
       -6     2     1     2     0   102 -6.4041287075e+01  2.4046864955e+01  2.2728445160e+02  2.9303614497e+02  1.7184999899e+02  4.159019e-14 9.
       24     2     3     0     0     0  2.9686078637e+01  1.7163733471e+01  2.7775683374e+01  9.1132043670e+01  7.9735210447e+01  3.378132e-14 9.
        5     1     3     0   103     0  3.4355208438e+01 -4.1210598426e+01 -8.7911103899e+01  1.0310187175e+02  4.8000000000e+00 0. 9.
      -24     2     4     0     0     0 -6.2838384231e+00  6.0698772099e+01  7.7237244413e+01  1.2806193621e+02  8.1917275471e+01  1.219500e-13 9.
       -5     1     4     0     0   102 -5.7757448652e+01 -3.6651907144e+01  1.5004720719e+02  1.6497420876e+02  4.8000000000e+00 0. 9.
       -1     1     5     0     0   104 -6.8498537113e+00  4.1929448828e+01  1.0776366296e+01  4.3831930660e+01  3.3000000000e-01 0. 9.
        2     1     5     0   104     0  3.6535932348e+01 -2.4765715356e+01  1.6999317078e+01  4.7300113010e+01  3.3000000000e-01 0. 9.
       13     1     7     0     0     0 -3.3344652013e+01  6.0960477846e+01  7.2801851973e+01  1.0063879218e+02  1.0566000000e-01  3.532316e+06 9.
      -14     1     7     0     0     0  2.7060813590e+01 -2.6170574712e-01  4.4353924405e+00  2.7423144024e+01  0.0000000000e+00 0. 9.
#pdf   21   21  5.033993e-02  2.462469e-02  1.846904e+02  1.896236e+00  3.843406e+00
</event>
<event>
    12  9999  1.000000e+00  5.375376e+02  7.977945e-03  9.442344e-02
       -2    -1     0     0     0   101  0.0000000000e+00  0.0000000000e+00  7.4806820197e+02  7.4806820197e+02  0.0000000000e+00 0. 9.
        2    -1     0     0   102     0  0.0000000000e+00  0.0000000000e+00 -3.8692704756e+02  3.8692704756e+02  0.0000000000e+00 0. 9.
       -6     2     1     2     0   101  5.0920993759e+02 -1.9098922830e+01  1.5700732055e+02  5.6014340816e+02  1.7160946830e+02  1.149805e-13 9.
        6     2     1     2   102     0 -5.0920993759e+02  1.9098922830e+01  2.0413383386e+02  5.7485184136e+02  1.7065898159e+02  3.131501e-13 9.
      -24     2     3     0     0     0  2.8016276054e+02  2.1711384461e+01  3.0985653460e+01  2.9550669289e+02  8.6032192886e+01  1.512362e-13 9.
       -5     1     3     0     0   101  2.2904717705e+02 -4.0810307292e+01  1.2602166709e+02  2.6463671527e+02  4.8000000000e+00 0. 9.
       24     2     4     0     0     0 -3.6514325827e+02  3.3470889806e+01  2.0903460918e+02  4.2990764823e+02  8.1702011288e+01  1.581283e-13 9.
        5     1     4     0   102     0 -1.4406667931e+02 -1.4371966976e+01 -4.9007753124e+00  1.4494419313e+02  4.8000000000e+00 0. 9.
       13     1     5     0     0     0  4.5353658397e+01  2.3712848154e+01  3.2607024664e+01  6.0683463308e+01  1.0566000000e-01  2.579864e+06 9.
      -14     1     5     0     0     0  2.3480910214e+02 -2.0014636925e+00 -1.6213712040e+00  2.3482322958e+02  0.0000000000e+00 0. 9.
      -13     1     7     0     0     0 -2.0864694011e+02 -1.9200690007e+01  1.3252075864e+02  2.4791929079e+02  1.0566000000e-01  6.625209e+05 9.
       14     1     7     0     0     0 -1.5649631817e+02  5.2671579813e+01  7.6513850535e+01  1.8198835744e+02  0.0000000000e+00 0. 9.
#pdf   -2    2  1.150874e-01  5.952724e-02  5.373863e+02  5.609188e-02  6.095893e-01
</event>
<event>
    12  9999  1.000000e+00  1.998453e+02  7.887663e-03  1.057451e-01
       21    -1     0     0   101   102  0.0000000000e+00  0.0000000000e+00  7.6208422346e+02  7.6208422346e+02  0.0000000000e+00 0. 9.
       21    -1     0     0   103   101  0.0000000000e+00  0.0000000000e+00 -1.1293547711e+02  1.1293547711e+02  0.0000000000e+00 0. 9.
        6     2     1     2   103     0  3.4577959148e+01  6.2022712543e+01  2.2135282670e+01  2.2259385656e+02  2.0979895641e+02  6.546560e-14 9.
       -6     2     1     2     0   102 -3.4577959148e+01 -6.2022712543e+01  6.2701346368e+02  6.5242584402e+02  1.6574421913e+02  2.686093e-13 9.
       24     2     3     0     0     0 -4.7108109069e+01 -3.0008376978e+01  1.7150370197e+01  9.9345227639e+01  8.0347137022e+01  5.809774e-14 9.
        5     1     3     0   103     0  8.1686068218e+01  9.2031089521e+01  4.9849124728e+00  1.2324862892e+02  4.8000000000e+00 0. 9.
      -24     2     4     0     0     0  2.3556582872e+01 -3.4859673213e+01  5.1707628552e+02  5.2504186220e+02  8.0814371260e+01  3.089665e-14 9.
       -5     1     4     0     0   102 -5.8134542020e+01 -2.7163039330e+01  1.0993717816e+02  1.2738398182e+02  4.8000000000e+00 0. 9.
       -3     1     5     0     0   104  1.8821082238e+01 -1.7290293801e+01  1.9487054384e+01  3.2143159224e+01  5.0000000000e-01 0. 9.
        4     1     5     0   104     0 -6.5929191308e+01 -1.2718083177e+01 -2.3366841866e+00  6.7202068414e+01  1.5000000000e+00 0. 9.
        3     1     7     0   105     0  3.9953839018e+01 -3.8428680797e+01  2.0055939681e+02  2.0808025954e+02  5.0000000000e-01 0. 9.
       -2     1     7     0     0   105 -1.6397256146e+01  3.5690075841e+00  3.1651688870e+02  3.1696160266e+02  3.3000000000e-01 0. 9.
#pdf   21   21  1.172437e-01  1.737469e-02  1.803153e+02  6.607807e-01  5.210614e+00
</event>
<event>
    12  9999  1.000000e+00  2.434802e+02  7.905519e-03  1.032706e-01
       21    -1     0     0   101   102  0.0000000000e+00  0.0000000000e+00  3.1421771032e+02  3.1421771032e+02  0.0000000000e+00 0. 9.
       21    -1     0     0   103   101  0.0000000000e+00  0.0000000000e+00 -2.2982911838e+02  2.2982911838e+02  0.0000000000e+00 0. 9.
        6     2     1     2   103     0 -1.5829273490e+02 -7.2032854577e+01 -7.2845876775e+01  2.5467189017e+02  1.7118974216e+02  2.943924e-13 9.
       -6     2     1     2     0   102  1.5829273490e+02  7.2032854577e+01  1.5723446872e+02  2.8937493852e+02  1.6961678818e+02  4.885509e-14 9.
       24     2     3     0     0     0 -1.3877969604e+02 -5.1892783245e+01  7.8236685638e+00  1.6913244486e+02  8.1190572911e+01  5.105119e-14 9.
        5     1     3     0   103     0 -1.9513038862e+01 -2.0140071332e+01 -8.0669545339e+01  8.5539445311e+01  4.8000000000e+00 0. 9.
      -24     2     4     0     0     0  9.5669180065e+01  1.0608121480e+02  7.2763181902e+01  1.7874294157e+02  7.9048987175e+01  3.279285e-14 9.
       -5     1     4     0     0   102  6.2623554834e+01 -3.4048360222e+01  8.4471286815e+01  1.1063199695e+02  4.8000000000e+00 0. 9.
       -1     1     5     0     0   104 -1.6399723063e+01 -6.2692162969e+00 -2.8581995015e+01  3.3545392062e+01  3.3000000000e-01 0. 9.
        2     1     5     0   104     0 -1.2237997297e+02 -4.5623566948e+01  3.6405663579e+01  1.3558705280e+02  3.3000000000e-01 0. 9.
        1     1     7     0   105     0  8.8247702942e+01  8.5536033833e+01  2.3876782742e+01  1.2519696407e+02  3.3000000000e-01 0. 9.
       -2     1     7     0     0   105  7.4214771227e+00  2.0545180966e+01  4.8886399160e+01  5.3545977500e+01  3.3000000000e-01 0. 9.
#pdf   21   21  4.834119e-02  3.535833e-02  2.429304e+02  1.947417e+00  2.697202e+00
</event>
<event>
    12  9999  1.000000e+00  2.063770e+02  7.890565e-03  1.053339e-01
       21    -1     0     0   101   102  0.0000000000e+00  0.0000000000e+00  2.0768392743e+02  2.0768392743e+02  0.0000000000e+00 0. 9.
       21    -1     0     0   102   103  0.0000000000e+00  0.0000000000e+00 -2.0740725728e+02  2.0740725728e+02  0.0000000000e+00 0. 9.
        6     2     1     2   101     0  3.6227547933e+01  1.1144446006e+02 -2.1836458309e+01  2.0662512983e+02  1.6877443662e+02  1.290425e-13 9.
       -6     2     1     2     0   103 -3.6227547933e+01 -1.1144446006e+02  2.2113128452e+01  2.0846605488e+02  1.7098772669e+02  1.181945e-14 9.
       24     2     3     0     0     0  8.1300635145e+01  1.0019744321e+02  6.4951380867e+00  1.5200097827e+02  8.0079895583e+01  9.539269e-14 9.
        5     1     3     0   101     0 -4.5073087212e+01  1.1247016855e+01 -2.8331596395e+01  5.4624151556e+01  4.8000000000e+00 0. 9.
      -24     2     4     0     0     0 -4.2550853431e+01 -1.0420807427e+02  7.3064761599e+01  1.5639438896e+02  8.0317169018e+01  4.340756e-14 9.
       -5     1     4     0     0   103  6.3233054977e+00 -7.2363857942e+00 -5.0951633147e+01  5.2071665924e+01  4.8000000000e+00 0. 9.
       -3     1     5     0     0   104  2.0596167291e+01  1.9279280145e+01  3.6817603226e+01  4.6386190373e+01  5.0000000000e-01 0. 9.
        4     1     5     0   104     0  6.0704467853e+01  8.0918163061e+01 -3.0322465140e+01  1.0561478790e+02  1.5000000000e+00 0. 9.
        1     1     7     0   105     0  1.9519543290e+01 -3.3347956055e+01  2.5540051874e+00  3.8726355183e+01  3.3000000000e-01 0. 9.
       -2     1     7     0     0   105 -6.2070396720e+01 -7.0860118212e+01  7.0510756412e+01  1.1766803377e+02  3.3000000000e-01 0. 9.
#pdf   21   21  3.195137e-02  3.190881e-02  2.054680e+02  3.002123e+00  3.005992e+00
</event>
<event>
    12  9999  1.000000e+00  2.640846e+02  7.912888e-03  1.022865e-01
       21    -1     0     0   101   102  0.0000000000e+00  0.0000000000e+00  9.9739182709e+02  9.9739182709e+02  0.0000000000e+00 0. 9.
       21    -1     0     0   103   101  0.0000000000e+00  0.0000000000e+00 -6.9988863768e+01  6.9988863768e+01  0.0000000000e+00 0. 9.
        6     2     1     2   103     0  3.6358949131e+01 -1.9741637844e+02  4.7991360514e+02  5.4773364644e+02  1.7146393028e+02  3.372205e-13 9.
       -6     2     1     2     0   102 -3.6358949131e+01  1.9741637844e+02  4.4748935818e+02  5.1964704442e+02  1.7172980356e+02  1.720737e-13 9.
       24     2     3     0     0     0  2.3570118965e+01 -1.3332759041e+02  1.7347308554e+02  2.3436523868e+02  8.0637192549e+01  3.462524e-14 9.
        5     1     3     0   103     0  1.2788830167e+01 -6.4088788026e+01  3.0644051960e+02  3.1336840776e+02  4.8000000000e+00 0. 9.
      -24     2     4     0     0     0 -8.9241976333e+01  1.6552592563e+02  3.5066145661e+02  4.0470228347e+02  7.3875020820e+01  1.850664e-13 9.
       -5     1     4     0     0   102  5.2883027202e+01  3.1890452807e+01  9.6827901575e+01  1.1494476095e+02  4.8000000000e+00 0. 9.
       -3     1     5     0     0   104 -2.9716797733e+01 -5.9370932049e+01  7.0945525329e+01  9.7167449303e+01  5.0000000000e-01 0. 9.
        4     1     5     0   104     0  5.3286916698e+01 -7.3956658362e+01  1.0252756021e+02  1.3719778937e+02  1.5000000000e+00 0. 9.
        3     1     7     0   105     0 -5.1342364051e+01  1.0154496036e+02  2.7945774492e+02  3.0173547772e+02  5.0000000000e-01 0. 9.
       -4     1     7     0     0   105 -3.7899612281e+01  6.3980965272e+01  7.1203711691e+01  1.0296680575e+02  1.5000000000e+00 0. 9.
#pdf   21   21  1.534449e-01  1.076752e-02  2.639983e+02  4.131356e-01  7.677101e+00
</event>
<event>
    12  9999  1.000000e+00  1.883983e+02  7.882345e-03  1.065076e-01
       21    -1     0     0   101   102  0.0000000000e+00  0.0000000000e+00  2.3029101015e+02  2.3029101015e+02  0.0000000000e+00 0. 9.
       21    -1     0     0   102   103  0.0000000000e+00  0.0000000000e+00 -3.9077277497e+02  3.9077277497e+02  0.0000000000e+00 0. 9.
        6     2     1     2   101     0 -5.3216906865e+01 -5.2570984028e+01  1.6161667557e+02  2.4728123175e+02  1.7155847462e+02  1.191395e-13 9.
       -6     2     1     2     0   103  5.3216906865e+01  5.2570984028e+01 -3.2209844039e+02  3.7378255337e+02  1.7427060672e+02  7.708105e-14 9.
       24     2     3     0     0     0 -9.0630431861e+01 -6.4171859822e+01  8.4744298987e+01  1.6087084780e+02  7.9786782674e+01  6.975234e-15 9.
        5     1     3     0   101     0  3.7413524995e+01  1.1600875794e+01  7.6872376586e+01  8.6410383947e+01  4.8000000000e+00 0. 9.
      -24     2     4     0     0     0  6.0366029096e+01  9.2266681878e+01 -2.9447394202e+02  3.2466014213e+02  8.0821453234e+01  3.947321e-14 9.
       -5     1     4     0     0   103 -7.1491222308e+00 -3.9695697850e+01 -2.7624498373e+01  4.9122411248e+01  4.8000000000e+00 0. 9.
      -15     1     5     0     0     0 -6.6597684315e+01 -1.1737356373e+01  1.3118334637e+01  6.8907654754e+01  1.7768200000e+00  7.320133e-02 9.
       16     1     5     0     0     0 -2.4032747546e+01 -5.2434503450e+01  7.1625964349e+01  9.1963193048e+01  0.0000000000e+00 0. 9.
       13     1     7     0     0     0 -8.6923179674e+00  5.9605775257e+01 -1.2432788518e+02  1.3815150753e+02  1.0566000000e-01  5.092788e+03 9.
      -14     1     7     0     0     0  6.9058347064e+01  3.2660906622e+01 -1.7014605684e+02  1.8650863459e+02  0.0000000000e+00 0. 9.
#pdf   21   21  3.542939e-02  6.011889e-02  1.871578e+02  2.724912e+00  1.554463e+00
</event>
<event>
    12  9999  1.000000e+00  2.243601e+02  7.898115e-03  1.042809e-01
       -2    -1     0     0     0   101  0.0000000000e+00  0.0000000000e+00  1.9529203157e+01  1.9529203157e+01  0.0000000000e+00 0. 9.
        2    -1     0     0   102     0  0.0000000000e+00  0.0000000000e+00 -3.9591152289e+03  3.9591152289e+03  0.0000000000e+00 0. 9.
       -6     2     1     2     0   101  1.3748628229e+02  4.9052999130e+01 -7.9183536682e+02  8.2287299518e+02  1.6972932422e+02  1.203016e-13 9.
        6     2     1     2   102     0 -1.3748628229e+02 -4.9052999130e+01 -3.1477506589e+03  3.1557714369e+03  1.7102770697e+02  1.634854e-14 9.
      -24     2     3     0     0     0  1.4430798353e+02  6.7374520133e+01 -7.8090333179e+02  7.9996528622e+02  6.9067542903e+01  1.985560e-13 9.
       -5     1     3     0     0   101 -6.8217012416e+00 -1.8321521003e+01 -1.0932035033e+01  2.2907708957e+01  4.8000000000e+00 0. 9.
       24     2     4     0     0     0 -1.5681506265e+02 -6.7937479276e+01 -2.3625013903e+03  2.3700426802e+03  8.0517211993e+01  8.983089e-14 9.
        5     1     4     0   102     0  1.9328780362e+01  1.8884480146e+01 -7.8524926857e+02  7.8572875671e+02  4.8000000000e+00 0. 9.
        3     1     5     0   103     0  2.0764067022e+01  4.2666179744e+01 -1.9959112414e+02  2.0515461537e+02  5.0000000000e-01 0. 9.
       -4     1     5     0     0   103  1.2354391651e+02  2.4708340389e+01 -5.8131220765e+02  5.9481067085e+02  1.5000000000e+00 0. 9.
       -1     1     7     0     0   104 -1.3930572710e+02 -5.4015831775e+01 -2.2685274078e+03  2.2734424348e+03  3.3000000000e-01 0. 9.
        2     1     7     0   104     0 -1.7509335547e+01 -1.3921647501e+01 -9.3973982535e+01  9.6600245310e+01  3.3000000000e-01 0. 9.
#pdf   -2    2  3.004493e-03  6.090947e-01  2.238676e+02  9.941678e-01  3.809412e-02
</event>
<event>
    12  9999  1.000000e+00  1.793923e+02  7.877935e-03  1.071494e-01
       21    -1     0     0   101   102  0.0000000000e+00  0.0000000000e+00  3.0034677199e+02  3.0034677199e+02  0.0000000000e+00 0. 9.
       21    -1     0     0   102   103  0.0000000000e+00  0.0000000000e+00 -3.4758636403e+02  3.4758636403e+02  0.0000000000e+00 0. 9.
        6     2     1     2   101     0 -1.4062686168e+01  5.2272099728e+01  2.4585186897e+02  3.0393983226e+02  1.7031191563e+02  3.334399e-13 9.
       -6     2     1     2     0   103  1.4062686168e+01 -5.2272099728e+01 -2.9309146101e+02  3.4399330376e+02  1.7175173060e+02  6.322856e-13 9.
       24     2     3     0     0     0 -5.2762527699e+01  7.8319370705e+01  2.1421124369e+02  2.4736857429e+02  7.9918373784e+01  7.389757e-14 9.
        5     1     3     0   101     0  3.8699841531e+01 -2.6047270977e+01  3.1640625283e+01  5.6571257969e+01  4.8000000000e+00 0. 9.
      -24     2     4     0     0     0  6.7151243982e+01 -6.4657039654e+01 -1.7043797276e+02  2.0968507658e+02  7.8923421353e+01  3.318624e-14 9.
       -5     1     4     0     0   103 -5.3088557814e+01  1.2384939926e+01 -1.2265348825e+02  1.3430822718e+02  4.8000000000e+00 0. 9.
       -3     1     5     0     0   104 -5.1062743964e+01  6.9563447321e+00  7.6360766979e+01  9.2124976455e+01  5.0000000000e-01 0. 9.
        4     1     5     0   104     0 -1.6997837353e+00  7.1363025973e+01  1.3785047671e+02  1.5524359784e+02  1.5000000000e+00 0. 9.
       13     1     7     0     0     0  2.7055200568e+01 -7.4799012555e+01 -9.7424376933e+01  1.2577120713e+02  1.0566000000e-01  6.440649e+05 9.
      -14     1     7     0     0     0  4.0096043414e+01  1.0141972901e+01 -7.3013595825e+01  8.3913869456e+01  0.0000000000e+00 0. 9.
#pdf   21   21  4.620720e-02  5.347483e-02  1.787072e+02  2.082428e+00  1.778635e+00
</event>
<event>
    12  9999  1.000000e+00  1.731697e+02  7.874759e-03  1.076168e-01
       -2    -1     0     0     0   101  0.0000000000e+00  0.0000000000e+00  3.1195560113e+01  3.1195560113e+01  0.0000000000e+00 0. 9.
        2    -1     0     0   102     0  0.0000000000e+00  0.0000000000e+00 -1.0130550750e+03  1.0130550750e+03  0.0000000000e+00 0. 9.
       -6     2     1     2     0   101 -1.8621987602e+01 -2.5324356888e+01 -3.6927002849e+02  4.0727855302e+02  1.6890045688e+02  1.794088e-13 9.
        6     2     1     2   102     0  1.8621987602e+01  2.5324356888e+01 -6.1258948644e+02  6.3697208213e+02  1.7169581547e+02  3.184714e-13 9.
      -24     2     3     0     0     0 -6.2767958880e+01 -5.7852337906e+01 -2.4520840883e+02  2.7155360394e+02  7.9545498867e+01  5.880102e-14 9.
       -5     1     3     0     0   101  4.4145971278e+01  3.2527981018e+01 -1.2406161966e+02  1.3572494908e+02  4.8000000000e+00 0. 9.
       24     2     4     0     0     0  2.8816273621e+01 -5.2213661358e+01 -2.8811925873e+02  3.0317568250e+02  7.3117324551e+01  2.748931e-13 9.
        5     1     4     0   102     0 -1.0194286019e+01  7.7538018246e+01 -3.2447022771e+02  3.3379639964e+02  4.8000000000e+00 0. 9.
       13     1     5     0     0     0  6.4080739508e-01 -2.3760415416e+01 -1.0379100345e+01  2.5936554568e+01  1.0566000000e-01  2.749994e+05 9.
      -14     1     5     0     0     0 -6.3408766275e+01 -3.4091922489e+01 -2.3482930848e+02  2.4561704937e+02  0.0000000000e+00 0. 9.
       -3     1     7     0     0   103  5.6983468593e+00 -6.4809051435e+01 -2.3571747928e+02  2.4453152014e+02  5.0000000000e-01 0. 9.
        2     1     7     0   103     0  2.3117926762e+01  1.2595390077e+01 -5.2401779452e+01  5.8644162358e+01  3.3000000000e-01 0. 9.
#pdf   -2    2  4.799317e-03  1.558546e-01  1.718007e+02  7.694218e-01  5.139351e-01
</event>
<event>
    12  9999  1.000000e+00  2.485174e+02  7.907375e-03  1.030207e-01
       21    -1     0     0   101   102  0.0000000000e+00  0.0000000000e+00  1.0698926819e+03  1.0698926819e+03  0.0000000000e+00 0. 9.
       21    -1     0     0   102   103  0.0000000000e+00  0.0000000000e+00 -5.9775465142e+01  5.9775465142e+01  0.0000000000e+00 0. 9.
        6     2     1     2   101     0 -8.9310617273e+01 -1.5693221742e+02  6.0947267810e+02  6.5816088200e+02  1.7063028460e+02  1.541037e-13 9.
       -6     2     1     2     0   103  8.9310617273e+01  1.5693221742e+02  4.0064453865e+02  4.7150726503e+02  1.7087699495e+02  8.448135e-14 9.
       24     2     3     0     0     0 -3.4787984352e+01 -1.6761319850e+02  4.1747434079e+02  4.5822788726e+02  7.9897329587e+01  1.215932e-13 9.
        5     1     3     0   101     0 -5.4522632921e+01  1.0680981080e+01  1.9199833731e+02  1.9993299474e+02  4.8000000000e+00 0. 9.
      -24     2     4     0     0     0  3.5524048390e+01  1.6990564238e+02  2.8125669175e+02  3.3983417463e+02  7.9069932775e+01  2.366408e-13 9.
       -5     1     4     0     0   103  5.3786568883e+01 -1.2973424954e+01  1.1938784690e+02  1.3167309040e+02  4.8000000000e+00 0. 9.
       -3     1     5     0     0   104  2.7710286788e+00  5.2093118300e+00  5.0651792182e+01  5.0996760495e+01  5.0000000000e-01 0. 9.
        2     1     5     0   104     0 -3.7559013031e+01 -1.7282251033e+02  3.6682254861e+02  4.0723112677e+02  3.3000000000e-01 0. 9.
        1     1     7     0   105     0 -2.4359031981e+01  6.9010958776e+01  1.1603076025e+02  1.3718280174e+02  3.3000000000e-01 0. 9.
       -4     1     7     0     0   105  5.9883080372e+01  1.0089468360e+02  1.6522593150e+02  2.0265137289e+02  1.5000000000e+00 0. 9.
#pdf   21   21  1.645989e-01  9.196225e-03  2.484327e+02  3.693963e-01  8.675272e+00
</event>
<event>
    12  9999  1.000000e+00  3.349129e+02  7.934518e-03  9.951419e-02
       21    -1     0     0   101   102  0.0000000000e+00  0.0000000000e+00  2.2582817817e+02  2.2582817817e+02  0.0000000000e+00 0. 9.
       21    -1     0     0   103   101  0.0000000000e+00  0.0000000000e+00 -6.6582598885e+02  6.6582598885e+02  0.0000000000e+00 0. 9.
        6     2     1     2   103     0 -5.7174037407e+01  2.8123464294e+02 -4.4427543930e+02  5.5585354331e+02  1.7096988244e+02  2.526649e-14 9.
       -6     2     1     2     0   102  5.7174037407e+01 -2.8123464294e+02  4.2776286210e+00  3.3580062371e+02  1.7430423357e+02  1.852845e-13 9.
       24     2     3     0     0     0 -8.9133481637e+01  1.1684781639e+02 -2.2334471420e+02  2.7858497294e+02  7.8284966925e+01  4.000670e-14 9.
        5     1     3     0   103     0  3.1959444230e+01  1.6438682655e+02 -2.2093072510e+02  2.7726857036e+02  4.8000000000e+00 0. 9.
      -24     2     4     0     0     0 -1.6869031426e+01 -1.2808123406e+02  2.1651629438e+01  1.6473561094e+02  9.9898256809e+01  3.189396e-14 9.
       -5     1     4     0     0   102  7.4043068834e+01 -1.5315340887e+02 -1.7374000817e+01  1.7106501277e+02  4.8000000000e+00 0. 9.
       -1     1     5     0     0   104 -6.8777306048e+01  9.2610469073e+01 -2.1778142069e+02  2.4644649096e+02  3.3000000000e-01 0. 9.
        2     1     5     0   104     0 -2.0356175589e+01  2.4237347314e+01 -5.5632935069e+00  3.2138481981e+01  3.3000000000e-01 0. 9.
        1     1     7     0   105     0 -1.6386143671e+01 -8.6132727174e+01 -3.4859908600e+01  9.4353985196e+01  3.3000000000e-01 0. 9.
       -2     1     7     0     0   105 -4.8288775564e-01 -4.1948506891e+01  5.6511538037e+01  7.0381625744e+01  3.3000000000e-01 0. 9.
#pdf   21   21  3.474280e-02  1.024348e-01  3.340546e+02  2.704329e+00  7.491832e-01
</event>
<event>
    12  9999  1.000000e+00  2.098279e+02  7.892062e-03  1.051232e-01
       21    -1     0     0   101   102  0.0000000000e+00  0.0000000000e+00  4.5535131022e+01  4.5535131022e+01  0.0000000000e+00 0. 9.
       21    -1     0     0   103   101  0.0000000000e+00  0.0000000000e+00 -1.0262302927e+03  1.0262302927e+03  0.0000000000e+00 0. 9.
        6     2     1     2   103     0 -1.0494969095e+02  6.2736433085e+01 -6.1951411060e+02  6.5412935037e+02  1.7069615144e+02  4.172654e-14 9.
       -6     2     1     2     0   102  1.0494969095e+02 -6.2736433085e+01 -3.6118105111e+02  4.1763607339e+02  1.7034623695e+02  2.364777e-13 9.
       24     2     3     0     0     0 -6.7536613365e+01 -1.7241468322e+01 -2.1108816124e+02  2.3624061016e+02  7.9955935969e+01  4.597166e-14 9.
        5     1     3     0   103     0 -3.7413077587e+01  7.9977901407e+01 -4.0842594935e+02  4.1788874021e+02  4.8000000000e+00 0. 9.
      -24     2     4     0     0     0  1.0868711340e+01 -1.2150348818e+01 -2.5145527340e+02  2.6442716718e+02  8.0163659844e+01  2.001018e-13 9.
       -5     1     4     0     0   102  9.4080979612e+01 -5.0586084266e+01 -1.0972577772e+02  1.5320890621e+02  4.8000000000e+00 0. 9.
       -3     1     5     0     0   104 -4.6006211155e+01 -2.7668495017e+01 -2.0443205745e+02  2.1136421929e+02  5.0000000000e-01 0. 9.
        4     1     5     0   104     0 -2.1530402211e+01  1.0427026695e+01 -6.6561037898e+00  2.4876390870e+01  1.5000000000e+00 0. 9.
        3     1     7     0   105     0 -3.1282719501e+01 -7.5584826043e+00 -5.7596038011e+01  6.5979487671e+01  5.0000000000e-01 0. 9.
       -4     1     7     0     0   105  4.2151430841e+01 -4.5918662141e+00 -1.9385923538e+02  1.9844767950e+02  1.5000000000e+00 0. 9.
#pdf   21   21  7.005405e-03  1.578816e-01  2.096858e+02  1.060491e+01  4.068913e-01
</event>
<event>
    12  9999  1.000000e+00  1.746334e+02  7.875516e-03  1.075050e-01
       21    -1     0     0   101   102  0.0000000000e+00  0.0000000000e+00  3.1875868353e+02  3.1875868353e+02  0.0000000000e+00 0. 9.
       21    -1     0     0   103   101  0.0000000000e+00  0.0000000000e+00 -1.7670188053e+02  1.7670188053e+02  0.0000000000e+00 0. 9.
        6     2     1     2   103     0  3.7031037810e+01  2.3671234729e+00 -9.6906254318e+01  1.9899641050e+02  1.6979943530e+02  7.403351e-14 9.
       -6     2     1     2     0   102 -3.7031037810e+01 -2.3671234729e+00  2.3896305732e+02  2.9646415356e+02  1.7149562836e+02  3.589804e-13 9.
       24     2     3     0     0     0 -2.9996517881e+01 -2.5691637738e+01 -8.8532647269e+01  1.2569467383e+02  8.0007937500e+01  1.637774e-13 9.
        5     1     3     0   103     0  6.7027555691e+01  2.8058761211e+01 -8.3736070493e+00  7.3301736662e+01  4.8000000000e+00 0. 9.
      -24     2     4     0     0     0  2.9741892728e+01 -4.1080475842e+01  1.0472050736e+02  1.4154013953e+02  8.0591815695e+01  8.014605e-14 9.
       -5     1     4     0     0   102 -6.6772930537e+01  3.8713352369e+01  1.3424254996e+02  1.5492401403e+02  4.8000000000e+00 0. 9.
      -11     1     5     0     0     0  1.4997788559e+01  3.2350834515e+00 -6.5815262214e+01  6.7579939088e+01  5.1100000000e-04 0. 9.
       12     1     5     0     0     0 -4.4994306440e+01 -2.8926721190e+01 -2.2717385055e+01  5.8114734746e+01  0.0000000000e+00 0. 9.
        1     1     7     0   104     0  6.4716694862e+00 -4.4204287674e+01  1.0888327599e+02  1.1769272808e+02  3.3000000000e-01 0. 9.
       -2     1     7     0     0   104  2.3270223241e+01  3.1238118322e+00 -4.1627686205e+00  2.3847411446e+01  3.3000000000e-01 0. 9.
#pdf   21   21  4.903980e-02  2.718490e-02  1.738066e+02  1.957581e+00  3.517302e+00
</event>
<event>
    12  9999  1.000000e+00  1.892315e+02  7.882743e-03  1.064502e-01
       21    -1     0     0   101   102  0.0000000000e+00  0.0000000000e+00  6.0034641547e+02  6.0034641547e+02  0.0000000000e+00 0. 9.
       21    -1     0     0   102   103  0.0000000000e+00  0.0000000000e+00 -6.9838222723e+01  6.9838222723e+01  0.0000000000e+00 0. 9.
        6     2     1     2   101     0 -1.8794104036e+00 -8.0588977439e+01  3.9416061461e+02  4.3755927791e+02  1.7203899589e+02  1.731932e-13 9.
       -6     2     1     2     0   103  1.8794104036e+00  8.0588977439e+01  1.3634757814e+02  2.3262536028e+02  1.7036954163e+02  7.761003e-15 9.
       24     2     3     0     0     0 -2.1060074153e+01 -4.2078226056e+01  8.6953657944e+01  1.2731722715e+02  8.0216169618e+01  2.942374e-14 9.
        5     1     3     0   101     0  1.9180663749e+01 -3.8510751384e+01  3.0720695667e+02  3.1024205076e+02  4.8000000000e+00 0. 9.
      -24     2     4     0     0     0  2.2762237062e+01  1.1423725220e+02  9.6578433474e+01  1.7629664904e+02  9.0470135536e+01  4.872152e-14 9.
       -5     1     4     0     0   103 -2.0882826658e+01 -3.3648274759e+01  3.9769144662e+01  5.6328711246e+01  4.8000000000e+00 0. 9.
       -3     1     5     0     0   104 -1.7614720097e+00  2.2762842245e+01  1.0251081041e+01  2.5031668607e+01  5.0000000000e-01 0. 9.
        4     1     5     0   104     0 -1.9298602143e+01 -6.4841068301e+01  7.6702576903e+01  1.0228555854e+02  1.5000000000e+00 0. 9.
        3     1     7     0   105     0 -3.0154620263e+01  3.3663860488e+01  9.0755158650e+00  4.6099583668e+01  5.0000000000e-01 0. 9.
       -4     1     7     0     0   105  5.2916857325e+01  8.0573391710e+01  8.7502917609e+01  1.3019706537e+02  1.5000000000e+00 0. 9.
#pdf   21   21  9.236099e-02  1.074434e-02  1.884778e+02  9.157272e-01  7.676191e+00
</event>
<event>
    12  9999  1.000000e+00  2.077396e+02  7.891159e-03  1.052502e-01
        1    -1     0     0   101     0  0.0000000000e+00  0.0000000000e+00  1.8426215862e+03  1.8426215862e+03  0.0000000000e+00 0. 9.
       -1    -1     0     0     0   102  0.0000000000e+00  0.0000000000e+00 -2.3512980551e+01  2.3512980551e+01  0.0000000000e+00 0. 9.
        6     2     1     2   101     0  1.4789889081e+01 -1.1727638050e+02  9.6691775806e+02  9.8893220451e+02  1.7054167828e+02  1.582636e-14 9.
       -6     2     1     2     0   102 -1.4789889081e+01  1.1727638050e+02  8.5219084755e+02  8.7720236220e+02  1.7112058135e+02  9.578054e-14 9.
       24     2     3     0     0     0  3.7258267168e+00 -1.5100601536e+02  7.8212928179e+02  8.0070382539e+02  8.1140027750e+01  1.901782e-13 9.
        5     1     3     0   101     0  1.1064062364e+01  3.3729634867e+01  1.8478847627e+02  1.8822837912e+02  4.8000000000e+00 0. 9.
      -24     2     4     0     0     0 -3.2895334613e+01  6.8537926150e+01  7.8223754412e+02  7.8991118996e+02  7.9275230926e+01  2.183318e-14 9.
       -5     1     4     0     0   102  1.8105445532e+01  4.8738454346e+01  6.9953303438e+01  8.7291172244e+01  4.8000000000e+00 0. 9.
       -1     1     5     0     0   103  1.9978626365e+01 -1.5097479596e+02  7.4081272036e+02  7.5630425761e+02  3.3000000000e-01 0. 9.
        2     1     5     0   103     0 -1.6252799649e+01 -3.1219400924e-02  4.1316561426e+01  4.4399567781e+01  3.3000000000e-01 0. 9.
        1     1     7     0   104     0  1.6155031852e+01  3.6597661621e+01  1.5996584635e+02  1.6489255529e+02  3.3000000000e-01 0. 9.
       -2     1     7     0     0   104 -4.9050366466e+01  3.1940264528e+01  6.2227169776e+02  6.2501863467e+02  3.3000000000e-01 0. 9.
#pdf    1   -1  2.834802e-01  3.617382e-03  2.075017e+02  1.371255e-01  9.159479e-01
</event>
<event>
    12  9999  1.000000e+00  2.405072e+02  7.904406e-03  1.034211e-01
       21    -1     0     0   101   102  0.0000000000e+00  0.0000000000e+00  9.0785756177e+01  9.0785756177e+01  0.0000000000e+00 0. 9.
       21    -1     0     0   103   101  0.0000000000e+00  0.0000000000e+00 -7.0588136270e+02  7.0588136270e+02  0.0000000000e+00 0. 9.
        6     2     1     2   103     0  1.4978697430e+02  7.7900241818e+01 -1.8305958934e+02  3.0211977075e+02  1.7105834469e+02  2.357398e-14 9.
       -6     2     1     2     0   102 -1.4978697430e+02 -7.7900241818e+01 -4.3203601719e+02  4.9454734813e+02  1.7151493825e+02  1.624175e-13 9.
       24     2     3     0     0     0  9.1656064186e+00  4.4449536321e+00 -8.0264777568e+01  1.1301698972e+02  7.8909058377e+01  1.091835e-13 9.
        5     1     3     0   103     0  1.4062136788e+02  7.3455288186e+01 -1.0279481177e+02  1.8910278103e+02  4.8000000000e+00 0. 9.
      -24     2     4     0     0     0 -1.5129482857e+02 -9.0089373916e+00 -2.9124497792e+02  3.3772438364e+02  7.9138082099e+01  1.410656e-14 9.
       -5     1     4     0     0   102  1.5078542734e+00 -6.8891304427e+01 -1.4079103927e+02  1.5682296449e+02  4.8000000000e+00 0. 9.
       -1     1     5     0     0   104  3.3857228558e+01  1.0185631867e+01 -7.7485624272e+00  3.6196797397e+01  3.3000000000e-01 0. 9.
        2     1     5     0   104     0 -2.4691622139e+01 -5.7406782348e+00 -7.2516215141e+01  7.6820192324e+01  3.3000000000e-01 0. 9.
       13     1     7     0     0     0 -3.4553085438e+00 -2.2262639590e+01 -3.6743878876e+01  4.3100905763e+01  1.0566000000e-01  1.450158e+05 9.
      -14     1     7     0     0     0 -1.4783952003e+02  1.3253702199e+01 -2.5450109904e+02  2.9462347788e+02  0.0000000000e+00 0. 9.
#pdf   21   21  1.396704e-02  1.085971e-01  2.403446e+02  6.229788e+00  7.141519e-01
</event>
<event>
    12  9999  1.000000e+00  2.075315e+02  7.891069e-03  1.052630e-01
       21    -1     0     0   101   102  0.0000000000e+00  0.0000000000e+00  1.0709266624e+02  1.0709266624e+02  0.0000000000e+00 0. 9.
       21    -1     0     0   103   101  0.0000000000e+00  0.0000000000e+00 -4.1119183382e+02  4.1119183382e+02  0.0000000000e+00 0. 9.
        6     2     1     2   103     0 -2.1456358011e+01  1.1527536583e+02 -1.9028113921e+02  2.8140106360e+02  1.7097035237e+02  2.653278e-13 9.
       -6     2     1     2     0   102  2.1456358011e+01 -1.1527536583e+02 -1.1381802837e+02  2.3688343646e+02  1.7149470435e+02  1.319006e-13 9.
       24     2     3     0     0     0  3.4825817348e+01  8.6505657702e+01 -8.7364934270e+01  1.6052854973e+02  9.7163353021e+01  1.054790e-13 9.
        5     1     3     0   103     0 -5.6282175359e+01  2.8769708129e+01 -1.0291620494e+02  1.2087251387e+02  4.8000000000e+00 0. 9.
      -24     2     4     0     0     0  6.9547225574e+01 -1.0290435944e+02 -5.5209767063e+01  1.5991758926e+02  8.4257896940e+01  7.355116e-14 9.
       -5     1     4     0     0   102 -4.8090867563e+01 -1.2371006387e+01 -5.8608261310e+01  7.6965847204e+01  4.8000000000e+00 0. 9.
       -1     1     5     0     0   104  2.7887864641e+01 -1.2157603175e+01 -3.0800304935e+00  3.0579990141e+01  3.3000000000e-01 0. 9.
        2     1     5     0   104     0  6.9379527073e+00  9.8663260878e+01 -8.4284903777e+01  1.2994855959e+02  3.3000000000e-01 0. 9.
       11     1     7     0     0     0 -1.3018697876e+01 -3.8363193473e+01  1.9226798265e+00  4.0557586292e+01  5.1100000000e-04 0. 9.
      -12     1     7     0     0     0  8.2565923450e+01 -6.4541165971e+01 -5.7132446889e+01  1.1936000296e+02  0.0000000000e+00 0. 9.
#pdf   21   21  1.647579e-02  6.326028e-02  2.073153e+02  5.440329e+00  1.454287e+00
</event>
<event>
    12  9999  1.000000e+00  1.881882e+02  7.882245e-03  1.065221e-01
       21    -1     0     0   101   102  0.0000000000e+00  0.0000000000e+00  1.5268444463e+03  1.5268444463e+03  0.0000000000e+00 0. 9.
       21    -1     0     0   103   101  0.0000000000e+00  0.0000000000e+00 -2.3227357014e+01  2.3227357014e+01  0.0000000000e+00 0. 9.
        6     2     1     2   103     0  4.7584169421e+01 -6.3163806201e+01  7.2184304390e+02  7.4591090675e+02  1.7050449024e+02  9.286030e-14 9.
       -6     2     1     2     0   102 -4.7584169421e+01  6.3163806201e+01  7.8177404540e+02  8.0416089658e+02  1.7102681055e+02  2.489422e-13 9.
       24     2     3     0     0     0  6.2951729331e+01  8.7971836285e+00  5.5807039017e+02  5.6630281099e+02  7.2221898899e+01  1.161120e-13 9.
        5     1     3     0   103     0 -1.5367559910e+01 -7.1960989830e+01  1.6377265373e+02  1.7960809576e+02  4.8000000000e+00 0. 9.
      -24     2     4     0     0     0 -3.4166360003e+01  1.0477204474e+02  4.7507327270e+02  4.9432273383e+02  8.0720686485e+01  1.777621e-13 9.
       -5     1     4     0     0   102 -1.3417809418e+01 -4.1608238535e+01  3.0670077270e+02  3.0983816275e+02  4.8000000000e+00 0. 9.
       -1     1     5     0     0   104  1.8297924106e+01 -6.0994220599e-01  4.2920863201e+02  4.2959905115e+02  3.3000000000e-01 0. 9.
        2     1     5     0   104     0  4.4653805224e+01  9.4071258345e+00  1.2886175816e+02  1.3670375984e+02  3.3000000000e-01 0. 9.
        1     1     7     0   105     0 -6.0892004340e+01  7.4383238724e+01  3.3272247117e+02  3.4633084489e+02  3.3000000000e-01 0. 9.
       -2     1     7     0     0   105  2.6725644336e+01  3.0388806012e+01  1.4235080153e+02  1.4799188894e+02  3.3000000000e-01 0. 9.
#pdf   21   21  2.348991e-01  3.573440e-03  1.879513e+02  1.929132e-01  1.688661e+01
</event>
<event>
    12  9999  1.000000e+00  1.874948e+02  7.881912e-03  1.065702e-01
       21    -1     0     0   101   102  0.0000000000e+00  0.0000000000e+00  3.4022822745e+02  3.4022822745e+02  0.0000000000e+00 0. 9.
       21    -1     0     0   102   103  0.0000000000e+00  0.0000000000e+00 -1.2120617052e+02  1.2120617052e+02  0.0000000000e+00 0. 9.
        6     2     1     2   101     0  7.8938984039e+01 -9.4378466854e+00  1.9779830187e+02  2.7209388337e+02  1.6908718755e+02  5.918431e-13 9.
       -6     2     1     2     0   103 -7.8938984039e+01  9.4378466854e+00  2.1223755060e+01  1.8934051459e+02  1.7052550113e+02  4.888397e-14 9.
       24     2     3     0     0     0  5.3072543429e+01 -4.4311974399e+01  2.0283301735e+02  2.2812041531e+02  7.8214097279e+01  1.439914e-14 9.
        5     1     3     0   101     0  2.5866440610e+01  3.4874127714e+01 -5.0347154738e+00  4.3973468063e+01  4.8000000000e+00 0. 9.
      -24     2     4     0     0     0 -1.1470529488e+02  3.5858522967e+01  1.2318446031e+01  1.4373760180e+02  7.7882062869e+01  2.491041e-14 9.
       -5     1     4     0     0   103  3.5766310839e+01 -2.6420676281e+01  8.9053090290e+00  4.5602912792e+01  4.8000000000e+00 0. 9.
       -3     1     5     0     0   104  5.7520082808e+01 -8.5638987144e+00  1.6881078896e+02  1.7854756441e+02  5.0000000000e-01 0. 9.
        4     1     5     0   104     0 -4.4475393790e+00 -3.5748075685e+01  3.4022228384e+01  4.9572850896e+01  1.5000000000e+00 0. 9.
        1     1     7     0   105     0  2.0591139606e-01  2.2441895581e+01 -1.2096285340e+01  2.5497256633e+01  3.3000000000e-01 0. 9.
       -2     1     7     0     0   105 -1.1491120627e+02  1.3416627385e+01  2.4414731371e+01  1.1824034517e+02  3.3000000000e-01 0. 9.
#pdf   21   21  5.234280e-02  1.864710e-02  1.868446e+02  1.815876e+00  4.906078e+00
</event>
<event>
    12  9999  1.000000e+00  2.358296e+02  7.902627e-03  1.036626e-01
       21    -1     0     0   101   102  0.0000000000e+00  0.0000000000e+00  8.0363249489e+01  8.0363249489e+01  0.0000000000e+00 0. 9.
       21    -1     0     0   103   101  0.0000000000e+00  0.0000000000e+00 -1.9054292601e+03  1.9054292601e+03  0.0000000000e+00 0. 9.
        6     2     1     2   103     0 -1.1244789863e+02 -1.1877755394e+02 -1.7067307737e+03  1.7231309956e+03  1.7174940123e+02  1.219290e-13 9.
       -6     2     1     2     0   102  1.1244789863e+02  1.1877755394e+02 -1.1833523692e+02  2.6266151402e+02  1.6803334616e+02  5.987907e-14 9.
       24     2     3     0     0     0 -7.3663648729e+01 -1.9055193018e+01 -1.1933902675e+03  1.1987358367e+03  8.3653106396e+01  1.569108e-14 9.
        5     1     3     0   103     0 -3.8784249896e+01 -9.9722360922e+01 -5.1334050625e+02  5.2439515889e+02  4.8000000000e+00 0. 9.
      -24     2     4     0     0     0  6.1304978601e+01  1.2555079429e+02 -1.3170191407e+02  2.0915279406e+02  8.2934882552e+01  5.352961e-14 9.
       -5     1     4     0     0   102  5.1142920025e+01 -6.7732403507e+00  1.3366677150e+01  5.3508719958e+01  4.8000000000e+00 0. 9.
      -13     1     5     0     0     0  1.6180659897e+01  4.2552175648e+00 -3.1766732947e+02  3.1810762960e+02  1.0566000000e-01  4.457949e+05 9.
       14     1     5     0     0     0 -8.9844308626e+01 -2.3310410583e+01 -8.7572293802e+02  8.8062820714e+02  0.0000000000e+00 0. 9.
       15     1     7     0     0     0  2.7886670889e+01  2.6864220273e+01  2.9764129220e+00  3.8876327853e+01  1.7768200000e+00  2.518848e-02 9.
      -16     1     7     0     0     0  3.3418307712e+01  9.8686574018e+01 -1.3467832699e+02  1.7027646621e+02  0.0000000000e+00 0. 9.
#pdf   21   21  1.236358e-02  2.931430e-01  2.344949e+02  6.877655e+00  1.044321e-01
</event>
<event>
    12  9999  1.000000e+00  2.170768e+02  7.895131e-03  1.046943e-01
       21    -1     0     0   101   102  0.0000000000e+00  0.0000000000e+00  3.0049916589e+02  3.0049916589e+02  0.0000000000e+00 0. 9.
       21    -1     0     0   103   101  0.0000000000e+00  0.0000000000e+00 -2.0357845309e+02  2.0357845309e+02  0.0000000000e+00 0. 9.
        6     2     1     2   103     0  1.3086220326e+02  1.6234832534e+01 -7.2505234645e+01  2.2791689807e+02  1.7117423096e+02  2.084385e-13 9.
       -6     2     1     2     0   102 -1.3086220326e+02 -1.6234832534e+01  1.6942594744e+02  2.7616072092e+02  1.7369831917e+02  2.448242e-13 9.
       24     2     3     0     0     0  1.7982021739e+01  2.1374169626e-01  4.3861039887e+00  9.0316285105e+01  8.8399064789e+01  5.801704e-14 9.
        5     1     3     0   103     0  1.1288018152e+02  1.6021090838e+01 -7.6891338634e+01  1.3760061296e+02  4.8000000000e+00 0. 9.
      -24     2     4     0     0     0 -4.9731483571e+01 -5.8148274519e+01  1.4193685343e+02  1.8067448848e+02  8.1503117347e+01  3.355210e-14 9.
       -5     1     4     0     0   102 -8.1130719687e+01  4.1913441985e+01  2.7489094013e+01  9.5486232440e+01  4.8000000000e+00 0. 9.
       -1     1     5     0     0   104 -1.3941956222e+01  2.9719980068e+00 -3.6023616679e+01  3.8743009358e+01  3.3000000000e-01 0. 9.
        2     1     5     0   104     0  3.1923977962e+01 -2.7582563105e+00  4.0409720668e+01  5.1573275747e+01  3.3000000000e-01 0. 9.
        1     1     7     0   105     0 -2.1205728457e+01 -3.8499360159e+01  1.1106317963e+01  4.5335889213e+01  3.3000000000e-01 0. 9.
       -2     1     7     0     0   105 -2.8525755114e+01 -1.9648914361e+01  1.3083053547e+02  1.3533859926e+02  3.3000000000e-01 0. 9.
#pdf   21   21  4.623064e-02  3.131976e-02  2.160766e+02  2.058276e+00  3.054088e+00
</event>
<event>
    12  9999  1.000000e+00  1.763380e+02  7.876390e-03  1.073762e-01
       21    -1     0     0   101   102  0.0000000000e+00  0.0000000000e+00  7.0784931327e+02  7.0784931327e+02  0.0000000000e+00 0. 9.
       21    -1     0     0   102   103  0.0000000000e+00  0.0000000000e+00 -4.4831614175e+01  4.4831614175e+01  0.0000000000e+00 0. 9.
        6     2     1     2   101     0 -3.5399887482e+01  3.9703015533e+01  3.8078583730e+02  4.1874766740e+02  1.6589838333e+02  3.436273e-13 9.
       -6     2     1     2     0   103  3.5399887482e+01 -3.9703015533e+01  2.8223186180e+02  3.3393326004e+02  1.7037346294e+02  1.669718e-13 9.
       24     2     3     0     0     0  2.4525373051e+01  1.2717726481e+01  1.0238101132e+02  1.3265060380e+02  7.9693642899e+01  1.047343e-13 9.
        5     1     3     0   101     0 -5.9925260533e+01  2.6985289052e+01  2.7840482598e+02  2.8609706360e+02  4.8000000000e+00 0. 9.
      -24     2     4     0     0     0  5.4543975984e+01 -2.9233888482e+01  7.1944054458e+01  1.2246198384e+02  7.7403649536e+01  2.394245e-14 9.
       -5     1     4     0     0   103 -1.9144088502e+01 -1.0469127051e+01  2.1028780734e+02  2.1147127621e+02  4.8000000000e+00 0. 9.
       -3     1     5     0     0   104 -3.6259978936e-01  7.6098700004e+00  1.0658213122e+02  1.0685523990e+02  5.0000000000e-01 0. 9.
        4     1     5     0   104     0  2.4887972840e+01  5.1078564810e+00 -4.2011198980e+00  2.5795363892e+01  1.5000000000e+00 0. 9.
        3     1     7     0   105     0 -8.4039758560e+00 -1.9750632232e+01 -5.5371310746e+00  2.2172598050e+01  5.0000000000e-01 0. 9.
       -4     1     7     0     0   105  6.2947951840e+01 -9.4832562501e+00  7.7481185532e+01  1.0028938579e+02  1.5000000000e+00 0. 9.
#pdf   21   21  1.088999e-01  6.897171e-03  1.742176e+02  7.371828e-01  1.067124e+01
</event>
<event>
    12  9999  1.000000e+00  2.477044e+02  7.907078e-03  1.030606e-01
       21    -1     0     0   101   102  0.0000000000e+00  0.0000000000e+00  1.3575782377e+02  1.3575782377e+02  0.0000000000e+00 0. 9.
       21    -1     0     0   103   101  0.0000000000e+00  0.0000000000e+00 -1.0747743636e+03  1.0747743636e+03  0.0000000000e+00 0. 9.
        6     2     1     2   103     0  1.4460117958e+02 -1.0521430694e+02 -9.3027983550e+02  9.6269984154e+02  1.7143763016e+02  1.357387e-13 9.
       -6     2     1     2     0   102 -1.4460117958e+02  1.0521430694e+02 -8.7367043557e+00  2.4783234586e+02  1.7136216073e+02  7.575407e-14 9.
       24     2     3     0     0     0  1.5518719598e+02 -1.1315189184e+02 -9.1715991078e+02  9.4345818303e+02  1.0974800576e+02  7.271877e-15 9.
        5     1     3     0   103     0 -1.0586016405e+01  7.9375848969e+00 -1.3119924728e+01  1.9241658509e+01  4.8000000000e+00 0. 9.
      -24     2     4     0     0     0 -3.5800953793e+01  9.2308117656e+01 -4.1333019851e+01  1.3342247462e+02  7.9313563318e+01  1.447783e-14 9.
       -5     1     4     0     0   102 -1.0880022579e+02  1.2906189285e+01  3.2596315496e+01  1.1440987124e+02  4.8000000000e+00 0. 9.
       -3     1     5     0     0   104 -7.3131540188e+00 -3.8903289809e+01 -1.1439243574e+02  1.2104886424e+02  5.0000000000e-01 0. 9.
        4     1     5     0   104     0  1.6250035000e+02 -7.4248602029e+01 -8.0276747504e+02  8.2240931879e+02  1.5000000000e+00 0. 9.
        3     1     7     0   105     0 -4.1183151851e+01  4.3666362386e+01  1.1795859434e+01  6.1173486906e+01  5.0000000000e-01 0. 9.
       -4     1     7     0     0   105  5.3821980588e+00  4.8641755270e+01 -5.3128879285e+01  7.2248987714e+01  1.5000000000e+00 0. 9.
#pdf   21   21  2.088582e-02  1.653499e-01  2.476783e+02  4.420208e+00  3.666250e-01
</event>
<event>
    12  9999  1.000000e+00  1.940328e+02  7.885001e-03  1.061253e-01
       21    -1     0     0   101   102  0.0000000000e+00  0.0000000000e+00  1.1993857990e+02  1.1993857990e+02  0.0000000000e+00 0. 9.
       21    -1     0     0   103   101  0.0000000000e+00  0.0000000000e+00 -5.9117917169e+02  5.9117917169e+02  0.0000000000e+00 0. 9.
        6     2     1     2   103     0 -9.1372845006e+01 -5.7125668089e+00 -4.7940023883e+02  5.1733823528e+02  1.7155940801e+02  2.132721e-13 9.
       -6     2     1     2     0   102  9.1372845006e+01  5.7125668089e+00  8.1596470371e+00  1.9377951631e+02  1.7059393564e+02  1.489109e-13 9.
       24     2     3     0     0     0 -1.2296761332e+01 -2.4585729237e+01 -3.7869460033e+02  3.8782418626e+02  7.9008421757e+01  1.858442e-14 9.
        5     1     3     0   103     0 -7.9076083674e+01  1.8873162428e+01 -1.0070563849e+02  1.2951404902e+02  4.8000000000e+00 0. 9.
      -24     2     4     0     0     0  6.8489329682e+01 -1.8943071758e+01  6.6588735904e+01  1.2618843545e+02  8.0248571594e+01  2.919097e-13 9.
       -5     1     4     0     0   102  2.2883515323e+01  2.4655638566e+01 -5.8429088867e+01  6.7591080865e+01  4.8000000000e+00 0. 9.
       -3     1     5     0     0   104  1.0283703758e+01  2.6141282702e+01 -1.3036531889e+02  1.3335849277e+02  5.0000000000e-01 0. 9.
        4     1     5     0   104     0 -2.2580465090e+01 -5.0727011939e+01 -2.4832928144e+02  2.5446569350e+02  1.5000000000e+00 0. 9.
       11     1     7     0     0     0  5.1994631954e+01  1.9794045346e+01  1.1429319773e+01  5.6796789821e+01  5.1100000000e-04 0. 9.
      -12     1     7     0     0     0  1.6494697728e+01 -3.8737117103e+01  5.5159416130e+01  6.9391645624e+01  0.0000000000e+00 0. 9.
#pdf   21   21  1.845209e-02  9.095064e-02  1.936076e+02  4.947918e+00  9.321121e-01
</event>
<event>
    12  9999  1.000000e+00  2.078023e+02  7.891186e-03  1.052464e-01
        2    -1     0     0   101     0  0.0000000000e+00  0.0000000000e+00  1.6429560234e+02  1.6429560234e+02  0.0000000000e+00 0. 9.
       -2    -1     0     0     0   102  0.0000000000e+00  0.0000000000e+00 -3.2231447043e+02  3.2231447043e+02  0.0000000000e+00 0. 9.
        6     2     1     2   101     0 -7.2195788355e+01 -9.2966595705e+01 -1.8370438221e+02  2.7778126797e+02  1.7193054709e+02  6.808538e-14 9.
       -6     2     1     2     0   102  7.2195788355e+01  9.2966595705e+01  2.5685514120e+01  2.0882880480e+02  1.7057169843e+02  5.606802e-14 9.
       24     2     3     0     0     0 -4.8065379176e+00  1.3706922525e+01 -8.6396982664e+01  1.1836884508e+02  7.9597502102e+01  4.246120e-14 9.
        5     1     3     0   101     0 -6.7389250438e+01 -1.0667351823e+02 -9.7307399545e+01  1.5941242289e+02  4.8000000000e+00 0. 9.
      -24     2     4     0     0     0  3.9354598031e+01 -7.3038477580e+00  4.6606181405e+01  1.0115606018e+02  8.0363435644e+01  3.230561e-13 9.
       -5     1     4     0     0   102  3.2841190325e+01  1.0027044346e+02 -2.0920667285e+01  1.0767274462e+02  4.8000000000e+00 0. 9.
       -1     1     5     0     0   103 -1.1127077624e+01  3.9656722608e+01 -1.8017848319e+01  4.4957972180e+01  3.3000000000e-01 0. 9.
        2     1     5     0   103     0  6.3205397066e+00 -2.5949800083e+01 -6.8379134346e+01  7.3410872903e+01  3.3000000000e-01 0. 9.
        3     1     7     0   104     0  4.2243357702e+01 -1.7780145830e+01 -7.0636609349e+00  4.6376504412e+01  5.0000000000e-01 0. 9.
       -4     1     7     0     0   104 -2.8887596714e+00  1.0476298072e+01  5.3669842340e+01  5.4779555772e+01  1.5000000000e+00 0. 9.
#pdf    2   -2  2.527625e-02  4.958684e-02  2.072432e+02  6.604376e-01  1.569951e-01
</event>
<event>
    12  9999  1.000000e+00  2.071965e+02  7.890923e-03  1.052835e-01
       21    -1     0     0   101   102  0.0000000000e+00  0.0000000000e+00  1.4169238635e+02  1.4169238635e+02  0.0000000000e+00 0. 9.
       21    -1     0     0   102   103  0.0000000000e+00  0.0000000000e+00 -4.8299261190e+02  4.8299261190e+02  0.0000000000e+00 0. 9.
        6     2     1     2   101     0 -1.0803126447e+02 -3.7148545254e+01  2.1457898574e+01  2.0549853078e+02  1.6946514752e+02  2.114583e-13 9.
       -6     2     1     2     0   103  1.0803126447e+02  3.7148545254e+01 -3.6275812413e+02  4.1918646747e+02  1.7627554956e+02  2.815740e-13 9.
       24     2     3     0     0     0 -9.6478118907e+01 -8.3014312915e+01 -6.6687818584e+00  1.5026001190e+02  7.9587655752e+01  8.138999e-14 9.
        5     1     3     0   101     0 -1.1553145559e+01  4.5865767661e+01  2.8126680432e+01  5.5238518876e+01  4.8000000000e+00 0. 9.
      -24     2     4     0     0     0  1.0260266764e+02 -2.0209987572e+01 -1.5222267735e+02  2.0085716275e+02  7.8969014957e+01  1.704459e-14 9.
       -5     1     4     0     0   103  5.4285968312e+00  5.7358532826e+01 -2.1053544678e+02  2.1832930472e+02  4.8000000000e+00 0. 9.
       -1     1     5     0     0   104 -1.0714456325e+02 -5.6448817500e+01 -9.5788567091e+00  1.2148370190e+02  3.3000000000e-01 0. 9.
        2     1     5     0   104     0  1.0666444344e+01 -2.6565495415e+01  2.9100748507e+00  2.8776310000e+01  3.3000000000e-01 0. 9.
        3     1     7     0   105     0  9.4976579105e+01 -2.9939554538e+01 -1.5828572308e+02  1.8700681174e+02  5.0000000000e-01 0. 9.
       -4     1     7     0     0   105  7.6260885301e+00  9.7295669663e+00  6.0630457292e+00  1.3850351011e+01  1.5000000000e+00 0. 9.
#pdf   21   21  2.179883e-02  7.430656e-02  2.043752e+02  4.275668e+00  1.200104e+00
</event>
<event>
    12  9999  1.000000e+00  2.154652e+02  7.894458e-03  1.047881e-01
        2    -1     0     0   101     0  0.0000000000e+00  0.0000000000e+00  8.7551740344e+02  8.7551740344e+02  0.0000000000e+00 0. 9.
       -2    -1     0     0     0   102  0.0000000000e+00  0.0000000000e+00 -7.9949097082e+01  7.9949097082e+01  0.0000000000e+00 0. 9.
        6     2     1     2   101     0 -9.4328926427e+01 -9.2464494245e+01  1.2170352892e+02  2.4827585656e+02  1.7141039334e+02  1.493557e-13 9.
       -6     2     1     2     0   102  9.4328926427e+01  9.2464494245e+01  6.7386477744e+02  7.0719064396e+02  1.6904803926e+02  5.283046e-14 9.
       24     2     3     0     0     0 -4.8849940694e+01  2.7602442157e+00  1.0426147530e+02  1.4120880191e+02  8.1703946357e+01  6.033074e-14 9.
        5     1     3     0   101     0 -4.5478985733e+01 -9.5224738461e+01  1.7442053620e+01  1.0706705466e+02  4.8000000000e+00 0. 9.
      -24     2     4     0     0     0  7.2438078841e+01  8.2973471386e+01  6.6846481965e+02  6.8226097755e+02  8.0640896384e+01  8.782225e-14 9.
       -5     1     4     0     0   102  2.1890847585e+01  9.4910228589e+00  5.3999577920e+00  2.4929666405e+01  4.8000000000e+00 0. 9.
       -3     1     5     0     0   103 -2.9234393479e+01  1.5345489722e+00 -5.4147802415e+00  2.9775400043e+01  5.0000000000e-01 0. 9.
        4     1     5     0   103     0 -1.9615547215e+01  1.2256952435e+00  1.0967625554e+02  1.1143340186e+02  1.5000000000e+00 0. 9.
        1     1     7     0   104     0  6.5720778922e+01  2.8261553678e+01  4.9780673197e+02  5.0292105493e+02  3.3000000000e-01 0. 9.
       -2     1     7     0     0   104  6.7172999198e+00  5.4711917708e+01  1.7065808768e+02  1.7933992263e+02  3.3000000000e-01 0. 9.
#pdf    2   -2  1.346950e-01  1.229986e-02  2.145341e+02  5.358888e-01  4.625237e-01
</event>
<event>
    12  9999  1.000000e+00  1.801405e+02  7.878309e-03  1.070945e-01
       21    -1     0     0   101   102  0.0000000000e+00  0.0000000000e+00  3.1873300454e+03  3.1873300454e+03  0.0000000000e+00 0. 9.
       21    -1     0     0   102   103  0.0000000000e+00  0.0000000000e+00 -3.1879142804e+01  3.1879142804e+01  0.0000000000e+00 0. 9.
        6     2     1     2   101     0 -5.0924659280e+01  2.2117982546e+01  2.9058004441e+03  2.9113820083e+03  1.7142476833e+02  4.027062e-13 9.
       -6     2     1     2     0   103  5.0924659280e+01 -2.2117982546e+01  2.4965045858e+02  3.0782718000e+02  1.7131752742e+02  7.773627e-15 9.
       24     2     3     0     0     0 -3.5675817050e+01  7.9467382278e+01  2.1335459071e+03  2.1368359536e+03  8.0386107963e+01  9.002845e-14 9.
        5     1     3     0   101     0 -1.5248842230e+01 -5.7349399732e+01  7.7225453701e+02  7.7454605465e+02  4.8000000000e+00 0. 9.
      -24     2     4     0     0     0 -3.3947153057e+01 -2.5527829031e+01  1.5911628219e+02  1.8359220635e+02  8.1142021902e+01  5.514245e-14 9.
       -5     1     4     0     0   103  8.4871812337e+01  3.4098464851e+00  9.0534176391e+01  1.2423497365e+02  4.8000000000e+00 0. 9.
      -13     1     5     0     0     0 -8.5742268695e+00  7.0108420985e+01  8.3753921509e+02  8.4051213914e+02  1.0566000000e-01  1.352921e+06 9.
       14     1     5     0     0     0 -2.7101590180e+01  9.3589612934e+00  1.2960066920e+03  1.2963238145e+03  0.0000000000e+00 0. 9.
        1     1     7     0   104     0 -2.3246012355e+01  1.9161359405e+01  1.1847378154e+02  1.2224434791e+02  3.3000000000e-01 0. 9.
       -2     1     7     0     0   104 -1.0701140702e+01 -4.4689188436e+01  4.0642500650e+01  6.1347858435e+01  3.3000000000e-01 0. 9.
#pdf   21   21  4.903585e-01  4.904484e-03  1.800895e+02  1.111330e-02  1.359242e+01
</event>
<event>
    12  9999  1.000000e+00  2.084834e+02  7.891482e-03  1.052048e-01
       21    -1     0     0   101   102  0.0000000000e+00  0.0000000000e+00  6.7023456824e+02  6.7023456824e+02  0.0000000000e+00 0. 9.
       21    -1     0     0   103   101  0.0000000000e+00  0.0000000000e+00 -6.5384794660e+01  6.5384794660e+01  0.0000000000e+00 0. 9.
        6     2     1     2   103     0  4.6186512911e+01  1.1032481161e+02  2.6922312599e+02  3.4052319968e+02  1.7079285677e+02  5.213475e-14 9.
       -6     2     1     2     0   102 -4.6186512911e+01 -1.1032481161e+02  3.3562664759e+02  3.9509616322e+02  1.7073656195e+02  3.989377e-14 9.
       24     2     3     0     0     0  2.9726892835e+01  1.1734374449e+02  1.1575436957e+02  1.8594026496e+02  8.0755591314e+01  2.837904e-14 9.
        5     1     3     0   103     0  1.6459620076e+01 -7.0189328877e+00  1.5346875641e+02  1.5458293472e+02  4.8000000000e+00 0. 9.
      -24     2     4     0     0     0 -4.1091007193e+01 -1.1911740795e+02  3.4785996240e+02  3.7848388101e+02  7.9787636865e+01  3.241369e-14 9.
       -5     1     4     0     0   102 -5.0955057180e+00  8.7925963494e+00 -1.2233314804e+01  1.6612282208e+01  4.8000000000e+00 0. 9.
       -1     1     5     0     0   104  5.2866784439e+00 -9.7969936836e-01 -1.0119296308e+01  1.1463761930e+01  3.3000000000e-01 0. 9.
        2     1     5     0   104     0  2.4440214391e+01  1.1832344386e+02  1.2587366588e+02  1.7447650303e+02  3.3000000000e-01 0. 9.
        3     1     7     0   105     0  8.1468955725e-01 -1.7847517126e+01  1.5993002811e+02  1.6092563959e+02  5.0000000000e-01 0. 9.
       -4     1     7     0     0   105 -4.1905696750e+01 -1.0126989083e+02  1.8792993429e+02  2.1755824142e+02  1.5000000000e+00 0. 9.
#pdf   21   21  1.031130e-01  1.005920e-02  2.084604e+02  7.804275e-01  8.084503e+00
</event>
<event>
    12  9999  1.000000e+00  1.702960e+02  7.873255e-03  1.078459e-01
       21    -1     0     0   101   102  0.0000000000e+00  0.0000000000e+00  1.8477568042e+03  1.8477568042e+03  0.0000000000e+00 0. 9.
       21    -1     0     0   103   101  0.0000000000e+00  0.0000000000e+00 -1.9476985031e+01  1.9476985031e+01  0.0000000000e+00 0. 9.
        6     2     1     2   103     0 -1.4139146935e+01  2.7913528413e+01  4.8546028569e+02  5.1312624248e+02  1.6324145060e+02  2.155771e-14 9.
       -6     2     1     2     0   102  1.4139146935e+01 -2.7913528413e+01  1.3428195335e+03  1.3541075468e+03  1.7165042422e+02  3.495005e-14 9.
       24     2     3     0     0     0 -1.9123501204e+01  7.6101853402e+01  3.9065394890e+02  4.0655119874e+02  8.0722791176e+01  6.161390e-14 9.
        5     1     3     0   103     0  4.9843542696e+00 -4.8188324989e+01  9.4806336798e+01  1.0657504375e+02  4.8000000000e+00 0. 9.
      -24     2     4     0     0     0  6.8698037490e+01 -4.6640138478e+01  8.4008828873e+02  8.4805507625e+02  8.0958981006e+01  8.066946e-14 9.
       -5     1     4     0     0   102 -5.4558890555e+01  1.8726610065e+01  5.0273124476e+02  5.0605247052e+02  4.8000000000e+00 0. 9.
      -13     1     5     0     0     0 -5.9276585745e+00  8.9808217709e+01  2.7530799117e+02  2.8964660238e+02  1.0566000000e-01  1.659792e+06 9.
       14     1     5     0     0     0 -1.3195842630e+01 -1.3706364307e+01  1.1534595772e+02  1.1690459635e+02  0.0000000000e+00 0. 9.
       13     1     7     0     0     0  1.7254970191e+01 -5.0675875316e+01  6.0533301450e+02  6.0769552240e+02  1.0566000000e-01  1.724057e+06 9.
      -14     1     7     0     0     0  5.1443067299e+01  4.0357368377e+00  2.3475527424e+02  2.4035955385e+02  0.0000000000e+00 0. 9.
#pdf   21   21  2.842703e-01  2.996459e-03  1.662133e+02  1.238039e-01  1.882201e+01
</event>
<event>
    12  9999  1.000000e+00  2.926796e+02  7.922233e-03  1.010680e-01
       21    -1     0     0   101   102  0.0000000000e+00  0.0000000000e+00  3.7325617219e+02  3.7325617219e+02  0.0000000000e+00 0. 9.
       21    -1     0     0   102   103  0.0000000000e+00  0.0000000000e+00 -7.4229923979e+02  7.4229923979e+02  0.0000000000e+00 0. 9.
        6     2     1     2   101     0  1.0565529361e+02 -2.1339858947e+02  2.7914772978e+02  4.0421024723e+02  1.6958912073e+02  1.400769e-14 9.
       -6     2     1     2     0   103 -1.0565529361e+02  2.1339858947e+02 -6.4819079738e+02  7.1134516475e+02  1.7075899552e+02  2.093760e-13 9.
       24     2     3     0     0     0  1.2211062250e+02 -2.0589359814e+02  1.9802015775e+02  3.2095266086e+02  8.0594353129e+01  3.955709e-14 9.
        5     1     3     0   101     0 -1.6455328895e+01 -7.5049913282e+00  8.1127572038e+01  8.3257586373e+01  4.8000000000e+00 0. 9.
      -24     2     4     0     0     0 -9.0805086130e+01  1.9555664927e+02 -6.4791902004e+02  6.8763910318e+02  8.0996993454e+01  2.794586e-15 9.
       -5     1     4     0     0   103 -1.4850207477e+01  1.7841940202e+01 -2.7177733829e-01  2.3706061571e+01  4.8000000000e+00 0. 9.
      -15     1     5     0     0     0  3.0336091842e-01 -6.8971409986e+01  6.1564530138e+01  9.2468891437e+01  1.7768200000e+00  2.151699e-01 9.
       16     1     5     0     0     0  1.2180726158e+02 -1.3692218815e+02  1.3645562761e+02  2.2848376942e+02  0.0000000000e+00 0. 9.
        3     1     7     0   104     0 -6.6087887689e+01  9.6891387120e+01 -2.3858648443e+02  2.6585580744e+02  5.0000000000e-01 0. 9.
       -4     1     7     0     0   104 -2.4717198441e+01  9.8665262147e+01 -4.0933253561e+02  4.2178329574e+02  1.5000000000e+00 0. 9.
#pdf   21   21  5.742403e-02  1.141999e-01  2.923396e+02  1.586392e+00  6.494424e-01
</event>
<event>
    12  9999  1.000000e+00  2.094472e+02  7.891898e-03  1.051463e-01
       21    -1     0     0   101   102  0.0000000000e+00  0.0000000000e+00  6.2647425555e+01  6.2647425555e+01  0.0000000000e+00 0. 9.
       21    -1     0     0   103   101  0.0000000000e+00  0.0000000000e+00 -7.7842312141e+02  7.7842312141e+02  0.0000000000e+00 0. 9.
        6     2     1     2   103     0  7.4996929646e+01 -9.5524994673e+01 -4.9133228363e+02  5.3415467955e+02  1.7077542178e+02  4.095040e-14 9.
       -6     2     1     2     0   102 -7.4996929646e+01  9.5524994673e+01 -2.2444341222e+02  3.0691586741e+02  1.7050788931e+02  7.895008e-13 9.
       24     2     3     0     0     0  6.4606034159e+01 -6.3037361983e+01 -4.8406498031e+02  4.9895140293e+02  8.0535387715e+01  7.755008e-14 9.
        5     1     3     0   103     0  1.0390895486e+01 -3.2487632689e+01 -7.2673033224e+00  3.5203276614e+01  4.8000000000e+00 0. 9.
      -24     2     4     0     0     0 -1.1692347483e+02  7.6224117375e+01 -1.9161613863e+02  2.5007372682e+02  7.9617267145e+01  4.951840e-14 9.
       -5     1     4     0     0   102  4.1926545183e+01  1.9300877298e+01 -3.2827273588e+01  5.6842140588e+01  4.8000000000e+00 0. 9.
       -1     1     5     0     0   104 -1.7210255672e+01 -2.0457043988e+01 -7.5247627599e+01  7.9856107520e+01  3.3000000000e-01 0. 9.
        4     1     5     0   104     0  8.1816289832e+01 -4.2580317995e+01 -4.0881735271e+02  4.1909529541e+02  1.5000000000e+00 0. 9.
        3     1     7     0   105     0 -9.5622851311e+00 -8.2982150066e+00  2.2697882776e+00  1.2872435980e+01  5.0000000000e-01 0. 9.
       -4     1     7     0     0   105 -1.0736118970e+02  8.4522332382e+01 -1.9388592691e+02  2.3720129084e+02  1.5000000000e+00 0. 9.
#pdf   21   21  9.638065e-03  1.197574e-01  2.093383e+02  8.354813e+00  6.294348e-01
</event>
<event>
    12  9999  1.000000e+00  1.999446e+02  7.887707e-03  1.057387e-01
       21    -1     0     0   101   102  0.0000000000e+00  0.0000000000e+00  1.1438915039e+02  1.1438915039e+02  0.0000000000e+00 0. 9.
       21    -1     0     0   102   103  0.0000000000e+00  0.0000000000e+00 -8.6639286216e+02  8.6639286216e+02  0.0000000000e+00 0. 9.
        6     2     1     2   101     0  2.1453786869e+01 -1.0117769879e+02  2.8117177087e+00  1.9992308994e+02  1.7106766039e+02  5.155590e-14 9.
       -6     2     1     2     0   103 -2.1453786869e+01  1.0117769879e+02 -7.5481542948e+02  7.8085892261e+02  1.7116405214e+02  2.357388e-13 9.
       24     2     3     0     0     0  7.8442564480e+01 -7.1238287829e+01 -1.0909065528e+01  1.3392771893e+02  8.1175714426e+01  1.940880e-13 9.
        5     1     3     0   101     0 -5.6988777611e+01 -2.9939410957e+01  1.3720783237e+01  6.5995371009e+01  4.8000000000e+00 0. 9.
      -24     2     4     0     0     0 -7.5195900347e+00  9.4729050606e+01 -2.8437998264e+02  3.1014850575e+02  7.9309418281e+01  5.349164e-15 9.
       -5     1     4     0     0   103 -1.3934196835e+01  6.4486481799e+00 -4.7043544684e+02  4.7071041687e+02  4.8000000000e+00 0. 9.
      -13     1     5     0     0     0 -1.1651285367e+01 -3.1159385535e+01 -1.1857616737e+01  3.5316766504e+01  1.0566000000e-01  7.974941e+05 9.
       14     1     5     0     0     0  9.0093849847e+01 -4.0078902294e+01  9.4855120947e-01  9.8610952428e+01  0.0000000000e+00 0. 9.
        1     1     7     0   104     0 -2.1229202493e+01  1.0467889001e+02 -2.4738402423e+02  2.6945744264e+02  3.3000000000e-01 0. 9.
       -2     1     7     0     0   104  1.3709612458e+01 -9.9498394017e+00 -3.6995958412e+01  4.0691063106e+01  3.3000000000e-01 0. 9.
#pdf   21   21  1.759833e-02  1.332912e-01  1.999033e+02  5.148881e+00  5.384169e-01
</event>
<event>
    12  9999  1.000000e+00  2.550607e+02  7.909732e-03  1.027053e-01
       21    -1     0     0   101   102  0.0000000000e+00  0.0000000000e+00  7.2333214901e+02  7.2333214901e+02  0.0000000000e+00 0. 9.
       21    -1     0     0   102   103  0.0000000000e+00  0.0000000000e+00 -1.3045708809e+02  1.3045708809e+02  0.0000000000e+00 0. 9.
        6     2     1     2   101     0 -1.1910045222e+02 -1.4492716776e+02  5.3329526831e+02  5.9059293504e+02  1.7090163851e+02  3.816637e-15 9.
       -6     2     1     2     0   103  1.1910045222e+02  1.4492716776e+02  5.9579792613e+01  2.6319630207e+02  1.7473906277e+02  1.462085e-13 9.
       24     2     3     0     0     0 -5.3744815016e+00 -1.0310731111e+02  3.1979127928e+02  3.4505375251e+02  7.8330244239e+01  1.491716e-14 9.
        5     1     3     0   101     0 -1.1372597072e+02 -4.1819856654e+01  2.1350398903e+02  2.4553918253e+02  4.8000000000e+00 0. 9.
      -24     2     4     0     0     0  7.9958882664e+01  1.4984587779e+02 -3.1354649156e+00  1.8895009205e+02  8.2735096159e+01  1.696506e-14 9.
       -5     1     4     0     0   103  3.9141569555e+01 -4.9187100266e+00  6.2715257528e+01  7.4246210020e+01  4.8000000000e+00 0. 9.
       -3     1     5     0     0   104  2.8413133488e+01 -1.6268224554e+01  5.1407089370e+01  6.0949980494e+01  5.0000000000e-01 0. 9.
        4     1     5     0   104     0 -3.3787614989e+01 -8.6839086556e+01  2.6838418991e+02  2.8410377202e+02  1.5000000000e+00 0. 9.
       15     1     7     0     0     0 -2.3488754800e+00  7.1593495683e+01 -1.9370580914e+01  7.4226156672e+01  1.7768200000e+00  2.410391e-02 9.
      -16     1     7     0     0     0  8.2307758144e+01  7.8252382108e+01  1.6235115998e+01  1.1472393537e+02  0.0000000000e+00 0. 9.
#pdf   21   21  1.112819e-01  2.007032e-02  2.537640e+02  6.853174e-01  4.576025e+00
</event>
<event>
    12  9999  1.000000e+00  2.085064e+02  7.891492e-03  1.052034e-01
       21    -1     0     0   101   102  0.0000000000e+00  0.0000000000e+00  1.5139494690e+03  1.5139494690e+03  0.0000000000e+00 0. 9.
       21    -1     0     0   103   101  0.0000000000e+00  0.0000000000e+00 -3.7713245769e+01  3.7713245769e+01  0.0000000000e+00 0. 9.
        6     2     1     2   103     0 -7.8946715912e+01 -8.8638358977e+01  3.5988657881e+02  4.1605615566e+02  1.7174117859e+02  1.308286e-13 9.
       -6     2     1     2     0   102  7.8946715912e+01  8.8638358977e+01  1.1163496444e+03  1.1356065591e+03  1.7110343610e+02  1.877942e-13 9.
       24     2     3     0     0     0 -2.6409518798e+01  6.0875997813e+00  2.4044834149e+02  2.5474373557e+02  7.9652020257e+01  9.815594e-16 9.
        5     1     3     0   103     0 -5.2537197114e+01 -9.4725958758e+01  1.1943823731e+02  1.6131242009e+02  4.8000000000e+00 0. 9.
      -24     2     4     0     0     0 -8.7913082304e+00  7.8006995287e+01  5.1201114118e+02  5.2482095574e+02  8.4375639130e+01  1.289647e-13 9.
       -5     1     4     0     0   102  8.7738024143e+01  1.0631363689e+01  6.0433850326e+02  6.1078560339e+02  4.8000000000e+00 0. 9.
      -11     1     5     0     0     0 -4.4068386047e+01 -2.0246152317e+01  1.8080979566e+02  1.8720072526e+02  5.1100000000e-04 0. 9.
       12     1     5     0     0     0  1.7658867250e+01  2.6333752098e+01  5.9638545836e+01  6.7543010309e+01  0.0000000000e+00 0. 9.
       13     1     7     0     0     0 -2.9685359573e+01  6.6222373897e+00  2.6813310695e+02  2.6985264277e+02  1.0566000000e-01  8.112697e+05 9.
      -14     1     7     0     0     0  2.0894051343e+01  7.1384757898e+01  2.4387803423e+02  2.5496831297e+02  0.0000000000e+00 0. 9.
#pdf   21   21  2.329153e-01  5.802038e-03  2.082444e+02  1.926128e-01  1.214636e+01
</event>
<event>
    12  9999  1.000000e+00  2.283793e+02  7.899721e-03  1.040599e-01
        2    -1     0     0   101     0  0.0000000000e+00  0.0000000000e+00  9.0510267437e+02  9.0510267437e+02  0.0000000000e+00 0. 9.
       -2    -1     0     0     0   102  0.0000000000e+00  0.0000000000e+00 -8.3307787030e+01  8.3307787030e+01  0.0000000000e+00 0. 9.
        6     2     1     2   101     0  1.3618342685e+02  7.1598727605e+01  6.8576463039e+02  7.2291307686e+02  1.6928639889e+02  1.191342e-13 9.
       -6     2     1     2     0   102 -1.3618342685e+02 -7.1598727605e+01  1.3603025694e+02  2.6549738454e+02  1.6826267219e+02  5.944967e-14 9.
       24     2     3     0     0     0  9.9103360520e+01  9.7621165887e+01  3.6433962503e+02  3.9827609085e+02  8.0802933595e+01  7.955253e-14 9.
        5     1     3     0   101     0  3.7080066325e+01 -2.6022438283e+01  3.2142500536e+02  3.2463698601e+02  4.8000000000e+00 0. 9.
      -24     2     4     0     0     0 -4.2214722129e+01  2.4364550945e+01  5.2284623026e+01  1.0714512060e+02  7.9816545624e+01  9.872895e-14 9.
       -5     1     4     0     0   102 -9.3968704717e+01 -9.5963278550e+01  8.3745633918e+01  1.5835226395e+02  4.8000000000e+00 0. 9.
      -11     1     5     0     0     0  3.1105060719e+01  6.6168028253e+01  2.5823961389e+02  2.6839044496e+02  5.1100000000e-04 0. 9.
       12     1     5     0     0     0  6.7998299802e+01  3.1453137634e+01  1.0610001115e+02  1.2988564589e+02  0.0000000000e+00 0. 9.
        3     1     7     0   103     0 -6.2614864012e+01  2.0731382345e+01  5.5398846779e+01  8.6137643534e+01  5.0000000000e-01 0. 9.
       -4     1     7     0     0   103  2.0400141883e+01  3.6331686001e+00 -3.1142237523e+00  2.1007477062e+01  1.5000000000e+00 0. 9.
#pdf    2   -2  1.392466e-01  1.281658e-02  2.280014e+02  5.287432e-01  4.520735e-01
</event>
<event>
    12  9999  1.000000e+00  1.751293e+02  7.875771e-03  1.074674e-01
       21    -1     0     0   101   102  0.0000000000e+00  0.0000000000e+00  1.1659016176e+02  1.1659016176e+02  0.0000000000e+00 0. 9.
       21    -1     0     0   102   103  0.0000000000e+00  0.0000000000e+00 -3.0077676464e+02  3.0077676464e+02  0.0000000000e+00 0. 9.
        6     2     1     2   101     0 -2.0238856868e+01  3.5590687423e+01 -1.8442779298e+01  1.7662714032e+02  1.7082359975e+02  2.269038e-13 9.
       -6     2     1     2     0   103  2.0238856868e+01 -3.5590687423e+01 -1.6574382359e+02  2.4073978608e+02  1.6973014224e+02  3.742033e-14 9.
       24     2     3     0     0     0 -6.1485422099e+01 -2.2198442990e+01 -1.9983946597e+01  1.0544934931e+02  8.0293082804e+01  1.802153e-13 9.
        5     1     3     0   101     0  4.1246565231e+01  5.7789130413e+01  1.5411672987e+00  7.1177791016e+01  4.8000000000e+00 0. 9.
      -24     2     4     0     0     0 -2.1221635427e+01 -5.4199941540e+01 -4.5406423560e+01  1.1201757896e+02  8.4250835139e+01  7.645461e-14 9.
       -5     1     4     0     0   103  4.1460492295e+01  1.8609254117e+01 -1.2033740003e+02  1.2872220712e+02  4.8000000000e+00 0. 9.
      -11     1     5     0     0     0 -2.3020138040e+01 -5.0337152932e+01 -5.4253769893e+00  5.5616458323e+01  5.1100000000e-04 0. 9.
       12     1     5     0     0     0 -3.8465284059e+01  2.8138709942e+01 -1.4558569607e+01  4.9832890985e+01  0.0000000000e+00 0. 9.
        3     1     7     0   104     0  7.0898608467e+00 -2.7072551555e+01  2.0926448662e+01  3.4947895904e+01  5.0000000000e-01 0. 9.
       -4     1     7     0     0   104 -2.8311496274e+01 -2.7127389985e+01 -6.6332872221e+01  7.7069683052e+01  1.5000000000e+00 0. 9.
#pdf   21   21  1.793695e-02  4.627335e-02  1.745985e+02  5.074091e+00  2.081939e+00
</event>
<event>
    12  9999  1.000000e+00  1.872075e+02  7.881774e-03  1.065902e-01
       21    -1     0     0   101   102  0.0000000000e+00  0.0000000000e+00  2.9437837447e+02  2.9437837447e+02  0.0000000000e+00 0. 9.
       21    -1     0     0   102   103  0.0000000000e+00  0.0000000000e+00 -1.6804618880e+02  1.6804618880e+02  0.0000000000e+00 0. 9.
        6     2     1     2   101     0 -1.5965582072e+01 -7.3917829546e+01  1.8795584967e+02  2.6512468807e+02  1.7101155945e+02  1.554298e-13 9.
       -6     2     1     2     0   103  1.5965582072e+01  7.3917829546e+01 -6.1623663994e+01  1.9729987521e+02  1.7149641237e+02  1.258868e-13 9.
       24     2     3     0     0     0  1.4450735610e+01 -6.2929451856e+01  3.8716642973e+01  1.1234616327e+02  8.3389101732e+01  9.069442e-14 9.
        5     1     3     0   101     0 -3.0416317682e+01 -1.0988377689e+01  1.4923920669e+02  1.5277852480e+02  4.8000000000e+00 0. 9.
      -24     2     4     0     0     0 -5.8982848740e+01  4.5281816775e+01 -4.7344604838e+01  1.1566520096e+02  7.4883294066e+01  5.597346e-14 9.
       -5     1     4     0     0   103  7.4948430812e+01  2.8636012771e+01 -1.4279059156e+01  8.1634674245e+01  4.8000000000e+00 0. 9.
      -11     1     5     0     0     0  2.5590811504e+01 -9.8906328250e+00 -1.8846022207e+01  3.3284933594e+01  5.1100000000e-04 0. 9.
       12     1     5     0     0     0 -1.1140075894e+01 -5.3038819031e+01  5.7562665180e+01  7.9061229675e+01  0.0000000000e+00 0. 9.
        1     1     7     0   104     0 -1.1783517579e+01  5.0704401629e+01 -4.3783015608e+01  6.8020945207e+01  3.3000000000e-01 0. 9.
       -2     1     7     0     0   104 -4.7199331161e+01 -5.4225848545e+00 -3.5615892298e+00  4.7644255754e+01  3.3000000000e-01 0. 9.
#pdf   21   21  4.528898e-02  2.585326e-02  1.869858e+02  2.121685e+00  3.675762e+00
</event>
<event>
    12  9999  1.000000e+00  1.805528e+02  7.878515e-03  1.070644e-01
       21    -1     0     0   101   102  0.0000000000e+00  0.0000000000e+00  8.4173513249e+02  8.4173513249e+02  0.0000000000e+00 0. 9.
       21    -1     0     0   103   101  0.0000000000e+00  0.0000000000e+00 -4.0310234065e+01  4.0310234065e+01  0.0000000000e+00 0. 9.
        6     2     1     2   103     0  4.3201161700e+01  3.7305680797e+01  3.1295290706e+02  3.6120685966e+02  1.7109301340e+02  3.663175e-14 9.
       -6     2     1     2     0   102 -4.3201161700e+01 -3.7305680797e+01  4.8847199137e+02  5.2083850690e+02  1.7149288535e+02  4.214484e-14 9.
       24     2     3     0     0     0 -4.2400098150e+01  1.9214452748e+01  1.8851283357e+02  2.0901211563e+02  7.7343471228e+01  1.290725e-13 9.
        5     1     3     0   103     0  8.5601259850e+01  1.8091228048e+01  1.2444007349e+02  1.5219474403e+02  4.8000000000e+00 0. 9.
      -24     2     4     0     0     0 -6.0929283640e+01  1.2478139822e+01  4.3071439507e+02  4.4240576480e+02  7.9623420106e+01  6.560141e-14 9.
       -5     1     4     0     0   102  1.7728121940e+01 -4.9783820618e+01  5.7757596295e+01  7.8432742096e+01  4.8000000000e+00 0. 9.
      -15     1     5     0     0     0  3.7524928585e+00  5.5290487237e+00 -5.6758651934e+00  8.9456200148e+00  1.7768200000e+00  7.427364e-02 9.
       16     1     5     0     0     0 -4.6152591008e+01  1.3685404025e+01  1.9418869876e+02  2.0006649561e+02  0.0000000000e+00 0. 9.
        3     1     7     0   104     0  1.2439356368e+01 -1.1792193327e+01  3.2366074843e+01  3.6627943036e+01  5.0000000000e-01 0. 9.
       -4     1     7     0     0   104 -7.3368640008e+01  2.4270333149e+01  3.9834832023e+02  4.0577782177e+02  1.5000000000e+00 0. 9.
#pdf   21   21  1.294977e-01  6.201574e-03  1.803632e+02  5.700832e-01  1.153017e+01
</event>
<event>
    12  9999  1.000000e+00  2.022450e+02  7.888740e-03  1.055921e-01
       21    -1     0     0   101   102  0.0000000000e+00  0.0000000000e+00  6.5873926486e+02  6.5873926486e+02  0.0000000000e+00 0. 9.
       21    -1     0     0   102   103  0.0000000000e+00  0.0000000000e+00 -6.4404546821e+01  6.4404546821e+01  0.0000000000e+00 0. 9.
        6     2     1     2   101     0 -5.6875439606e+01 -9.1875699125e+01  3.6570119343e+02  4.1791120518e+02  1.7098670364e+02  7.112034e-14 9.
       -6     2     1     2     0   103  5.6875439606e+01  9.1875699125e+01  2.2863352461e+02  3.0523260650e+02  1.7093184540e+02  2.731682e-14 9.
       24     2     3     0     0     0 -2.5408302203e+01 -1.2397296673e+02  3.1090607031e+02  3.4687627827e+02  8.7439633853e+01  5.266038e-14 9.
        5     1     3     0   101     0 -3.1467137403e+01  3.2097267606e+01  5.4795123114e+01  7.1034926910e+01  4.8000000000e+00 0. 9.
      -24     2     4     0     0     0  7.2244825230e+00  1.1713402268e+02  1.3741814315e+02  1.9824435358e+02  8.1513834657e+01  3.197396e-13 9.
       -5     1     4     0     0   103  4.9650957083e+01 -2.5258323558e+01  9.1215381457e+01  1.0698825292e+02  4.8000000000e+00 0. 9.
      -11     1     5     0     0     0  9.2161443848e+00 -1.2880465048e+01  1.0289835918e+00  1.5871436755e+01  5.1100000000e-04 0. 9.
       12     1     5     0     0     0 -3.4624446588e+01 -1.1109250168e+02  3.0987708672e+02  3.3100484152e+02  0.0000000000e+00 0. 9.
        3     1     7     0   104     0  2.7355062631e+01  1.0477152486e+02  1.3692479520e+02  1.7456809965e+02  5.0000000000e-01 0. 9.
       -4     1     7     0     0   104 -2.0130580108e+01  1.2362497823e+01  4.9334794647e-01  2.3676253929e+01  1.5000000000e+00 0. 9.
#pdf   21   21  1.013445e-01  9.908392e-03  2.022218e+02  8.019608e-01  8.176633e+00
</event>
<event>
    12  9999  1.000000e+00  1.781191e+02  7.877294e-03  1.072433e-01
       21    -1     0     0   101   102  0.0000000000e+00  0.0000000000e+00  3.8595617602e+02  3.8595617602e+02  0.0000000000e+00 0. 9.
       21    -1     0     0   102   103  0.0000000000e+00  0.0000000000e+00 -1.6869401193e+02  1.6869401193e+02  0.0000000000e+00 0. 9.
        6     2     1     2   101     0  1.6281713479e+01 -5.0911737125e+01  3.0719738521e+02  3.5508440044e+02  1.6987524478e+02  1.322488e-13 9.
       -6     2     1     2     0   103 -1.6281713479e+01  5.0911737125e+01 -8.9935221114e+01  1.9956578750e+02  1.6994428609e+02  3.161864e-14 9.
       24     2     3     0     0     0  4.7589306951e+01 -3.7102037457e+01  8.5629525600e+01  1.3083848716e+02  7.8389991379e+01  9.505181e-15 9.
        5     1     3     0   101     0 -3.1307593472e+01 -1.3809699668e+01  2.2156785961e+02  2.2424591328e+02  4.8000000000e+00 0. 9.
      -24     2     4     0     0     0 -2.5694552120e+01  8.5080969159e+01 -2.1279705076e+01  1.2215288269e+02  8.1052572933e+01  1.012089e-13 9.
       -5     1     4     0     0   103  9.4128386411e+00 -3.4169232034e+01 -6.8655516038e+01  7.7412904813e+01  4.8000000000e+00 0. 9.
       -3     1     5     0     0   104 -1.7320861941e+01 -5.3816122409e+00  4.3642618863e+01  4.7264174487e+01  5.0000000000e-01 0. 9.
        4     1     5     0   104     0  6.4910168892e+01 -3.1720425216e+01  4.1986906737e+01  8.3574312673e+01  1.5000000000e+00 0. 9.
        3     1     7     0   105     0  2.0436712918e+01  3.9863258274e+01 -3.4093086239e+01  5.6296777212e+01  5.0000000000e-01 0. 9.
       -2     1     7     0     0   105 -4.6131265038e+01  4.5217710885e+01  1.2813381163e+01  6.5856105476e+01  3.3000000000e-01 0. 9.
#pdf   21   21  5.937787e-02  2.595292e-02  1.780862e+02  1.582139e+00  3.667716e+00
</event>
<event>
    12  9999  1.000000e+00  1.982945e+02  7.886960e-03  1.058451e-01
       21    -1     0     0   101   102  0.0000000000e+00  0.0000000000e+00  5.9869343772e+01  5.9869343772e+01  0.0000000000e+00 0. 9.
       21    -1     0     0   103   101  0.0000000000e+00  0.0000000000e+00 -6.5860454003e+02  6.5860454003e+02  0.0000000000e+00 0. 9.
        6     2     1     2   103     0 -2.3012715458e+01  9.7741812559e+01 -3.1863549541e+02  3.7541827596e+02  1.7125202479e+02  7.674173e-15 9.
       -6     2     1     2     0   102  2.3012715458e+01 -9.7741812559e+01 -2.8009970085e+02  3.4305560785e+02  1.7072861699e+02  4.871126e-14 9.
       24     2     3     0     0     0  2.6769819454e+01  4.2415860527e+01 -7.6494734298e+01  1.2205203918e+02  8.0805491363e+01  1.669072e-13 9.
        5     1     3     0   103     0 -4.9782534912e+01  5.5325952032e+01 -2.4214076111e+02  2.5336623678e+02  4.8000000000e+00 0. 9.
      -24     2     4     0     0     0  5.8667024960e+01 -5.6403088364e+01 -9.0441730709e+01  1.4563902915e+02  8.0049309575e+01  1.139190e-14 9.
       -5     1     4     0     0   102 -3.5654309502e+01 -4.1338724195e+01 -1.8965797015e+02  1.9741657870e+02  4.8000000000e+00 0. 9.
       -3     1     5     0     0   104 -1.7007478912e+01  3.4324817287e+01 -6.1659118609e+00  3.8803555118e+01  5.0000000000e-01 0. 9.
        4     1     5     0   104     0  4.3777298366e+01  8.0910432406e+00 -7.0328822437e+01  8.3248484060e+01  1.5000000000e+00 0. 9.
        3     1     7     0   105     0  7.4159056292e+01 -6.1623765110e+01 -6.8690425269e+01  1.1838783122e+02  5.0000000000e-01 0. 9.
       -4     1     7     0     0   105 -1.5492031332e+01  5.2206767463e+00 -2.1751305439e+01  2.7251197933e+01  1.5000000000e+00 0. 9.
#pdf   21   21  9.210668e-03  1.013238e-01  1.980689e+02  8.642840e+00  8.039591e-01
</event>
<event>
    12  9999  1.000000e+00  2.400848e+02  7.904247e-03  1.034427e-01
       21    -1     0     0   101   102  0.0000000000e+00  0.0000000000e+00  4.4362268407e+01  4.4362268407e+01  0.0000000000e+00 0. 9.
       21    -1     0     0   102   103  0.0000000000e+00  0.0000000000e+00 -1.8377200570e+03  1.8377200570e+03  0.0000000000e+00 0. 9.
        6     2     1     2   101     0  2.9111899674e+01 -1.6556754756e+02 -3.8664385881e+02  4.5498444165e+02  1.7104751701e+02  1.645546e-13 9.
       -6     2     1     2     0   103 -2.9111899674e+01  1.6556754756e+02 -1.4067139298e+03  1.4270978837e+03  1.7176779119e+02  7.618962e-14 9.
       24     2     3     0     0     0 -1.0213238295e+01 -1.7877949614e+02 -3.4117907196e+02  3.9325026226e+02  7.8588746941e+01  8.499541e-14 9.
        5     1     3     0   101     0  3.9325137969e+01  1.3211948578e+01 -4.5464786854e+01  6.1734179392e+01  4.8000000000e+00 0. 9.
      -24     2     4     0     0     0 -2.0437356171e+00  1.8468124938e+02 -1.0663023073e+03  1.0850436017e+03  7.8788745889e+01  2.181465e-15 9.
       -5     1     4     0     0   103 -2.7068164057e+01 -1.9113701822e+01 -3.4041162251e+02  3.4205428201e+02  4.8000000000e+00 0. 9.
       -3     1     5     0     0   104 -1.6371483499e+00 -1.5496885795e+02 -2.1790651588e+02  2.6739769418e+02  5.0000000000e-01 0. 9.
        4     1     5     0   104     0 -8.5760899454e+00 -2.3810638189e+01 -1.2327255608e+02  1.2585256808e+02  1.5000000000e+00 0. 9.
        1     1     7     0   105     0  3.6935838409e+01  9.7967623869e+01 -6.1323589851e+02  6.2210954631e+02  3.3000000000e-01 0. 9.
       -2     1     7     0     0   105 -3.8979574026e+01  8.6713625511e+01 -4.5306640874e+02  4.6293405542e+02  3.3000000000e-01 0. 9.
#pdf   21   21  6.824964e-03  2.827262e-01  2.398278e+02  1.084124e+01  1.152115e-01
</event>
<event>
    12  9999  1.000000e+00  1.942914e+02  7.885121e-03  1.061080e-01
       21    -1     0     0   101   102  0.0000000000e+00  0.0000000000e+00  7.9722928619e+01  7.9722928619e+01  0.0000000000e+00 0. 9.
       21    -1     0     0   103   101  0.0000000000e+00  0.0000000000e+00 -8.6774817748e+02  8.6774817748e+02  0.0000000000e+00 0. 9.
        6     2     1     2   103     0 -2.5549674166e+01 -8.8081205031e+01 -7.1344526240e+02  7.3945522506e+02  1.7140245887e+02  1.714680e-14 9.
       -6     2     1     2     0   102  2.5549674166e+01  8.8081205031e+01 -7.4579986466e+01  2.0801588104e+02  1.7116468051e+02  9.224166e-14 9.
       24     2     3     0     0     0 -4.0779008735e+01  1.4445947801e+01 -3.2687223444e+02  3.3919843793e+02  7.9614757980e+01  1.540964e-15 9.
        5     1     3     0   103     0  1.5229334569e+01 -1.0252715283e+02 -3.8657302796e+02  4.0025678713e+02  4.8000000000e+00 0. 9.
      -24     2     4     0     0     0 -4.6068250417e+01  3.5901188770e+01 -1.5733237080e+01  1.0153648805e+02  8.1553323685e+01  1.243407e-14 9.
       -5     1     4     0     0   102  7.1617924583e+01  5.2180016262e+01 -5.8846749386e+01  1.0647939299e+02  4.8000000000e+00 0. 9.
      -11     1     5     0     0     0 -2.8209411866e+01  8.8855168676e+00 -3.2375721353e+02  3.2510530085e+02  5.1100000000e-04 0. 9.
       12     1     5     0     0     0 -1.2569596869e+01  5.5604309331e+00 -3.1150209095e+00  1.4093137084e+01  0.0000000000e+00 0. 9.
        3     1     7     0   104     0 -2.4849208717e+01  5.2851115278e-01 -4.4674091455e+01  5.1125208511e+01  5.0000000000e-01 0. 9.
       -4     1     7     0     0   104 -2.1219041700e+01  3.5372677617e+01  2.8940854375e+01  5.0411279535e+01  1.5000000000e+00 0. 9.
#pdf   21   21  1.226507e-02  1.334997e-01  1.941866e+02  6.921706e+00  5.391187e-01
</event>
<event>
    12  9999  1.000000e+00  2.275795e+02  7.899404e-03  1.041035e-01
       21    -1     0     0   101   102  0.0000000000e+00  0.0000000000e+00  5.6457339540e+02  5.6457339540e+02  0.0000000000e+00 0. 9.
       21    -1     0     0   103   101  0.0000000000e+00  0.0000000000e+00 -1.5555293930e+02  1.5555293930e+02  0.0000000000e+00 0. 9.
        6     2     1     2   103     0 -1.1993785156e+02  8.9650603927e+01  4.3533184790e+02  4.9140348427e+02  1.7187567467e+02  1.248461e-13 9.
       -6     2     1     2     0   102  1.1993785156e+02 -8.9650603927e+01 -2.6311391792e+01  2.2872285043e+02  1.7087871122e+02  3.187266e-14 9.
       24     2     3     0     0     0 -6.6044216468e+01  1.2096388329e+02  2.5458627890e+02  3.0015222001e+02  7.9265895488e+01  4.774791e-15 9.
        5     1     3     0   103     0 -5.3893635092e+01 -3.1313279363e+01  1.8074556900e+02  1.9125126426e+02  4.8000000000e+00 0. 9.
      -24     2     4     0     0     0  1.3118032563e+02 -1.0056074284e+02  1.4308230959e+01  1.8492310035e+02  8.1676720900e+01  4.942222e-14 9.
       -5     1     4     0     0   102 -1.1242474070e+01  1.0910138915e+01 -4.0619622751e+01  4.3799750077e+01  4.8000000000e+00 0. 9.
       -1     1     5     0     0   104 -3.2647239947e+01  1.3011445095e+01  1.1670051412e+02  1.2187804920e+02  3.3000000000e-01 0. 9.
        2     1     5     0   104     0 -3.3396976522e+01  1.0795243820e+02  1.3788576477e+02  1.7827417081e+02  3.3000000000e-01 0. 9.
        3     1     7     0   105     0  1.4356468549e+01  4.5523276098e+00 -1.9023417248e+01  2.4268751094e+01  5.0000000000e-01 0. 9.
       -4     1     7     0     0   105  1.1682385708e+02 -1.0511307045e+02  3.3331648207e+01  1.6065434926e+02  1.5000000000e+00 0. 9.
#pdf   21   21  8.685745e-02  2.393122e-02  2.272044e+02  9.748794e-01  3.921014e+00
</event>
<event>
    12  9999  1.000000e+00  1.835880e+02  7.880016e-03  1.068455e-01
       21    -1     0     0   101   102  0.0000000000e+00  0.0000000000e+00  2.3644478628e+02  2.3644478628e+02  0.0000000000e+00 0. 9.
       21    -1     0     0   103   101  0.0000000000e+00  0.0000000000e+00 -1.4299155338e+02  1.4299155338e+02  0.0000000000e+00 0. 9.
        6     2     1     2   103     0 -6.7490210098e+01 -1.2261240129e+01  3.6278767333e+01  1.8759229268e+02  1.7079066967e+02  7.000510e-14 9.
       -6     2     1     2     0   102  6.7490210098e+01  1.2261240129e+01  5.7174465567e+01  1.9184404699e+02  1.6979385261e+02  2.118795e-13 9.
       24     2     3     0     0     0 -6.2795924331e+00 -5.3334360111e+01  5.7214770140e+01  1.1081275691e+02  7.8242890550e+01  1.492658e-14 9.
        5     1     3     0   103     0 -6.1210617665e+01  4.1073119982e+01 -2.0936002808e+01  7.6779535774e+01  4.8000000000e+00 0. 9.
      -24     2     4     0     0     0 -7.3526645435e+00  4.7670258007e+01  5.4353804068e+01  1.0886061151e+02  8.1054188960e+01  4.456786e-14 9.
       -5     1     4     0     0   102  7.4842874642e+01 -3.5409017878e+01  2.8206614990e+00  8.2983435474e+01  4.8000000000e+00 0. 9.
       -3     1     5     0     0   104  3.2289528399e+00 -5.3217342678e+01  7.4152123100e+01  9.1330712570e+01  5.0000000000e-01 0. 9.
        4     1     5     0   104     0 -9.5085452730e+00 -1.1701743346e-01 -1.6937352960e+01  1.9482044338e+01  1.5000000000e+00 0. 9.
        1     1     7     0   105     0  5.3041230302e+00  6.9094738677e+01  4.2527404775e+01  8.1307476230e+01  3.3000000000e-01 0. 9.
       -2     1     7     0     0   105 -1.2656787574e+01 -2.1424480670e+01  1.1826399293e+01  2.7553135283e+01  3.3000000000e-01 0. 9.
#pdf   21   21  3.637612e-02  2.199870e-02  1.831262e+02  2.657270e+00  4.251525e+00
</event>
<event>
    12  9999  1.000000e+00  1.942947e+02  7.885122e-03  1.061078e-01
       21    -1     0     0   101   102  0.0000000000e+00  0.0000000000e+00  3.4822304085e+01  3.4822304085e+01  0.0000000000e+00 0. 9.
       21    -1     0     0   103   101  0.0000000000e+00  0.0000000000e+00 -1.7612150939e+03  1.7612150939e+03  0.0000000000e+00 0. 9.
        6     2     1     2   103     0  5.0705436244e+01  7.6079743547e+01 -1.4197097827e+03  1.4329280660e+03  1.7131201555e+02  1.101587e-14 9.
       -6     2     1     2     0   102 -5.0705436244e+01 -7.6079743547e+01 -3.0668300710e+02  3.6310933194e+02  1.7156558937e+02  2.415800e-14 9.
       24     2     3     0     0     0  2.0769648411e+01  5.4274206297e+01 -1.3253817371e+03  1.3314763384e+03  1.1320522502e+02  1.423133e-13 9.
        5     1     3     0   103     0  2.9935787832e+01  2.1805537250e+01 -9.4328045613e+01  1.0145172762e+02  4.8000000000e+00 0. 9.
      -24     2     4     0     0     0 -4.8040060091e+01 -1.7883942322e+01 -2.8566540679e+02  3.0099141961e+02  7.9771092972e+01  3.130400e-15 9.
       -5     1     4     0     0   102 -2.6653761527e+00 -5.8195801225e+01 -2.1017600311e+01  6.2117912336e+01  4.8000000000e+00 0. 9.
      -11     1     5     0     0     0  4.0760167376e+01 -1.8266121650e+01 -2.9633203095e+02  2.9967935366e+02  5.1100000000e-04 0. 9.
       12     1     5     0     0     0 -1.9990518965e+01  7.2540327947e+01 -1.0290497061e+03  1.0317969848e+03  0.0000000000e+00 0. 9.
       11     1     7     0     0     0 -9.4260719856e+00 -1.0897904977e+01 -1.9092626202e+00  1.4534801339e+01  5.1100000000e-04 0. 9.
      -12     1     7     0     0     0 -3.8613988105e+01 -6.9860373458e+00 -2.8375614417e+02  2.8645661827e+02  0.0000000000e+00 0. 9.
#pdf   21   21  5.357278e-03  2.709562e-01  1.941828e+02  1.282072e+01  1.357454e-01
</event>
<event>
    12  9999  1.000000e+00  2.035758e+02  7.889331e-03  1.055082e-01
       21    -1     0     0   101   102  0.0000000000e+00  0.0000000000e+00  3.4994063930e+02  3.4994063930e+02  0.0000000000e+00 0. 9.
       21    -1     0     0   103   101  0.0000000000e+00  0.0000000000e+00 -1.5840020469e+02  1.5840020469e+02  0.0000000000e+00 0. 9.
        6     2     1     2   103     0  6.0133261486e+01  9.3515248019e+01 -3.1844274989e+01  2.0623348454e+02  1.7075444810e+02  4.280403e-14 9.
       -6     2     1     2     0   102 -6.0133261486e+01 -9.3515248019e+01  2.2338470959e+02  3.0210735945e+02  1.7031446622e+02  5.400641e-14 9.
       24     2     3     0     0     0 -1.9648771680e+00  2.7338568136e+01 -6.5201807336e+01  1.0942802628e+02  8.3498258696e+01  4.465210e-14 9.
        5     1     3     0   103     0  6.2098138654e+01  6.6176679883e+01  3.3357532346e+01  9.6805458260e+01  4.8000000000e+00 0. 9.
      -24     2     4     0     0     0 -2.8729896360e+01 -5.7009529566e+01  2.3091202309e+02  2.5313247538e+02  8.1732455468e+01  3.709346e-13 9.
       -5     1     4     0     0   102 -3.1403365126e+01 -3.6505718453e+01 -7.5273134980e+00  4.8974884069e+01  4.8000000000e+00 0. 9.
       -1     1     5     0     0   104  2.0658445542e+01 -1.9923930025e+01 -4.1955480995e+00  2.9007686631e+01  3.3000000000e-01 0. 9.
        2     1     5     0   104     0 -2.2623322710e+01  4.7262498161e+01 -6.1006259236e+01  8.0420339647e+01  3.3000000000e-01 0. 9.
       15     1     7     0     0     0 -3.2608073994e+01 -6.2578963139e+01  1.0200387432e+02  1.2404580034e+02  1.7768200000e+00  1.090382e-02 9.
      -16     1     7     0     0     0  3.8781776337e+00  5.5694335727e+00  1.2890814877e+02  1.2908667504e+02  0.0000000000e+00 0. 9.
#pdf   21   21  5.383702e-02  2.436926e-02  2.033916e+02  1.750473e+00  3.869702e+00
</event>
<event>
    12  9999  1.000000e+00  1.814343e+02  7.878953e-03  1.070004e-01
       21    -1     0     0   101   102  0.0000000000e+00  0.0000000000e+00  2.5902398049e+02  2.5902398049e+02  0.0000000000e+00 0. 9.
       21    -1     0     0   103   101  0.0000000000e+00  0.0000000000e+00 -1.3165151729e+02  1.3165151729e+02  0.0000000000e+00 0. 9.
        6     2     1     2   103     0  4.5786932911e+01 -5.7853376149e+01  2.8970927196e+01  1.8783249307e+02  1.7028879726e+02  2.151579e-13 9.
       -6     2     1     2     0   102 -4.5786932911e+01  5.7853376149e+01  9.8401536002e+01  2.0284300472e+02  1.6130395506e+02  7.606338e-14 9.
       24     2     3     0     0     0  1.8762636063e+01 -1.0141500530e+02  3.4290652567e+01  1.3607085058e+02  8.1868111700e+01  5.205336e-14 9.
        5     1     3     0   103     0  2.7024296848e+01  4.3561629150e+01 -5.3197253702e+00  5.1761642482e+01  4.8000000000e+00 0. 9.
      -24     2     4     0     0     0 -4.3458613685e+01 -2.3754312907e+01  6.3113363901e+01  1.1377263325e+02  8.0672156832e+01  2.463093e-14 9.
       -5     1     4     0     0   102 -2.3283192262e+00  8.1607689056e+01  3.5288172100e+01  8.9070371469e+01  4.8000000000e+00 0. 9.
       -3     1     5     0     0   104  3.5493013062e+01 -4.8603339059e+01  5.0244489103e+01  7.8401512927e+01  5.0000000000e-01 0. 9.
        4     1     5     0   104     0 -1.6730377000e+01 -5.2811666241e+01 -1.5953836537e+01  5.7669337658e+01  1.5000000000e+00 0. 9.
        1     1     7     0   105     0 -6.0957819422e+01  3.7430125556e+00  4.8790306106e+01  7.8169487408e+01  3.3000000000e-01 0. 9.
       -2     1     7     0     0   105  1.7499205737e+01 -2.7497325463e+01  1.4323057795e+01  3.5603145839e+01  3.3000000000e-01 0. 9.
#pdf   21   21  3.984984e-02  2.025408e-02  1.773765e+02  2.428519e+00  4.572552e+00
</event>
<event>
    12  9999  1.000000e+00  1.833696e+02  7.879908e-03  1.068611e-01
       21    -1     0     0   101   102  0.0000000000e+00  0.0000000000e+00  2.6558660403e+02  2.6558660403e+02  0.0000000000e+00 0. 9.
       21    -1     0     0   103   101  0.0000000000e+00  0.0000000000e+00 -4.2222141640e+02  4.2222141640e+02  0.0000000000e+00 0. 9.
        6     2     1     2   103     0  6.7163499920e+01  1.3203961567e+01 -3.6590835104e+02  4.0871081480e+02  1.6873152772e+02  8.261087e-14 9.
       -6     2     1     2     0   102 -6.7163499920e+01 -1.3203961567e+01  2.0927353868e+02  2.7909720563e+02  1.7150672254e+02  4.997637e-13 9.
       24     2     3     0     0     0  1.1883391229e+01  2.4959363642e+01 -3.3207354329e+02  3.4266602613e+02  7.9893569768e+01  2.150860e-14 9.
        5     1     3     0   103     0  5.5280108690e+01 -1.1755402075e+01 -3.3834807756e+01  6.6044788671e+01  4.8000000000e+00 0. 9.
      -24     2     4     0     0     0 -7.7745212872e+01 -3.0711332148e+01  6.7469346926e+01  1.3574467000e+02  8.2987942569e+01  3.176178e-14 9.
       -5     1     4     0     0   102  1.0581712952e+01  1.7507370580e+01  1.4180419175e+02  1.4335253563e+02  4.8000000000e+00 0. 9.
       -3     1     5     0     0   104 -3.3207210186e+01  1.4132423963e+01 -1.8352785075e+02  1.8704322018e+02  5.0000000000e-01 0. 9.
        4     1     5     0   104     0  4.5090601415e+01  1.0826939679e+01 -1.4854569253e+02  1.5562280594e+02  1.5000000000e+00 0. 9.
        1     1     7     0   105     0 -7.4158537744e+01 -4.5079669366e+01  7.8699979037e+01  1.1715571224e+02  3.3000000000e-01 0. 9.
       -2     1     7     0     0   105 -3.5866751275e+00  1.4368337218e+01 -1.1230632111e+01  1.8588957757e+01  3.3000000000e-01 0. 9.
#pdf   21   21  4.085948e-02  6.495714e-02  1.820868e+02  2.364355e+00  1.423872e+00
</event>
<event>
    12  9999  1.000000e+00  2.201716e+02  7.896411e-03  1.045166e-01
       21    -1     0     0   101   102  0.0000000000e+00  0.0000000000e+00  1.2150198368e+02  1.2150198368e+02  0.0000000000e+00 0. 9.
       21    -1     0     0   102   103  0.0000000000e+00  0.0000000000e+00 -5.7040100066e+02  5.7040100066e+02  0.0000000000e+00 0. 9.
        6     2     1     2   101     0 -5.5971075407e+01 -1.2676595893e+02 -3.5016049043e+01  2.2324893672e+02  1.7149808871e+02  3.449282e-13 9.
       -6     2     1     2     0   103  5.5971075407e+01  1.2676595893e+02 -4.1388296793e+02  4.6865404762e+02  1.7069017422e+02  1.973852e-14 9.
       24     2     3     0     0     0  3.0439182619e+01 -8.8096389871e+01 -1.0371803587e+00  1.2255299946e+02  7.9565345395e+01  1.062576e-13 9.
        5     1     3     0   101     0 -8.6410258026e+01 -3.8669569062e+01 -3.3978868684e+01  1.0069593726e+02  4.8000000000e+00 0. 9.
      -24     2     4     0     0     0  1.3078312750e+00  6.0179931060e+01 -3.4203636697e+02  3.5637429238e+02  7.9940136421e+01  2.392173e-14 9.
       -5     1     4     0     0   103  5.4663244132e+01  6.6586027873e+01 -7.1846600957e+01  1.1227975524e+02  4.8000000000e+00 0. 9.
      -13     1     5     0     0     0 -6.8116429999e+00 -7.4722161170e+01  2.0107944626e+01  7.7679729991e+01  1.0566000000e-01  4.305541e+05 9.
       14     1     5     0     0     0  3.7250825619e+01 -1.3374228701e+01 -2.1145124985e+01  4.4873269474e+01  0.0000000000e+00 0. 9.
        3     1     7     0   104     0 -3.3122336845e+01  2.2516422245e+01 -8.0643145072e+01  9.0042463959e+01  5.0000000000e-01 0. 9.
       -4     1     7     0     0   104  3.4430168120e+01  3.7663508814e+01 -2.6139322190e+02  2.6633182842e+02  1.5000000000e+00 0. 9.
#pdf   21   21  1.869261e-02  8.775400e-02  2.198579e+02  4.882776e+00  9.649330e-01
</event>
<event>
    12  9999  1.000000e+00  1.891359e+02  7.882697e-03  1.064567e-01
       -2    -1     0     0     0   101  0.0000000000e+00  0.0000000000e+00  6.2425036665e+01  6.2425036665e+01  0.0000000000e+00 0. 9.
        2    -1     0     0   102     0  0.0000000000e+00  0.0000000000e+00 -5.7319791284e+02  5.7319791284e+02  0.0000000000e+00 0. 9.
       -6     2     1     2     0   101 -3.5422424793e+01 -7.2046844693e+01 -2.5927228650e+02  3.2044500428e+02  1.7034490370e+02  9.867833e-13 9.
        6     2     1     2   102     0  3.5422424793e+01  7.2046844693e+01 -2.5150058967e+02  3.1517794522e+02  1.7216008404e+02  2.622732e-13 9.
      -24     2     3     0     0     0 -1.2337187055e+01 -1.0330800487e+02 -2.4679230224e+02  2.7934782258e+02  7.9397830466e+01  7.335290e-16 9.
       -5     1     3     0     0   101 -2.3085237738e+01  3.1261160173e+01 -1.2479984260e+01  4.1097181703e+01  4.8000000000e+00 0. 9.
       24     2     4     0     0     0  5.2436035684e+01  1.0602919209e+02 -1.5172404043e+02  2.0830108771e+02  7.9858820963e+01  1.301089e-13 9.
        5     1     4     0   102     0 -1.7013610890e+01 -3.3982347399e+01 -9.9776549248e+01  1.0687685750e+02  4.8000000000e+00 0. 9.
       11     1     5     0     0     0  1.7336526851e+01 -5.1469178302e+00 -9.1373795483e+01  9.3146209947e+01  5.1100000000e-04 0. 9.
      -12     1     5     0     0     0 -2.9673713907e+01 -9.8161087036e+01 -1.5541850676e+02  1.8620161263e+02  0.0000000000e+00 0. 9.
       -3     1     7     0     0   103  1.9221425958e+01  9.2825429786e+00 -8.1417465455e+01  8.4170556022e+01  5.0000000000e-01 0. 9.
        4     1     7     0   103     0  3.3214609725e+01  9.6746649113e+01 -7.0306574972e+01  1.2413053169e+02  1.5000000000e+00 0. 9.
#pdf   -2    2  9.603852e-03  8.818429e-02  1.883159e+02  5.326113e-01  5.897004e-01
</event>
<event>
    12  9999  1.000000e+00  1.788088e+02  7.877641e-03  1.071923e-01
       21    -1     0     0   101   102  0.0000000000e+00  0.0000000000e+00  4.7019032956e+02  4.7019032956e+02  0.0000000000e+00 0. 9.
       21    -1     0     0   103   101  0.0000000000e+00  0.0000000000e+00 -1.6735299018e+02  1.6735299018e+02  0.0000000000e+00 0. 9.
        6     2     1     2   103     0 -4.9973373588e+01 -1.7208285452e+01 -9.3950457000e+01  2.0261720023e+02  1.7156217038e+02  1.800916e-14 9.
       -6     2     1     2     0   102  4.9973373588e+01  1.7208285452e+01  3.9678779638e+02  4.3492611951e+02  1.7007854340e+02  1.571630e-13 9.
       24     2     3     0     0     0 -9.4263957187e+01 -2.8325681426e+01 -9.0461496827e+01  1.5656869177e+02  8.1501134848e+01  1.954400e-13 9.
        5     1     3     0   103     0  4.4290583599e+01  1.1117395974e+01 -3.4889601730e+00  4.6048508465e+01  4.8000000000e+00 0. 9.
      -24     2     4     0     0     0  1.9355937044e+01  2.0858338653e+01  9.0602520847e+01  1.2715475427e+02  8.4556443636e+01  5.407916e-15 9.
       -5     1     4     0     0   102  3.0617436544e+01 -3.6500532015e+00  3.0618527553e+02  3.0777136524e+02  4.8000000000e+00 0. 9.
       -3     1     5     0     0   104 -2.2070636090e+01 -2.7823406430e+01  6.0538892133e+00  3.6029911148e+01  5.0000000000e-01 0. 9.
        4     1     5     0   104     0 -7.2193321097e+01 -5.0227499635e-01 -9.6515386040e+01  1.2053878062e+02  1.5000000000e+00 0. 9.
        1     1     7     0   105     0  3.4373873163e+01  1.9424318093e+01  1.0125683062e+02  1.0868266622e+02  3.3000000000e-01 0. 9.
       -2     1     7     0     0   105 -1.5017936119e+01  1.4340205604e+00 -1.0654309774e+01  1.8472088052e+01  3.3000000000e-01 0. 9.
#pdf   21   21  7.233697e-02  2.574661e-02  1.781016e+02  1.254502e+00  3.694505e+00
</event>
<event>
    12  9999  1.000000e+00  1.861654e+02  7.881271e-03  1.066631e-01
       21    -1     0     0   101   102  0.0000000000e+00  0.0000000000e+00  4.8534081075e+01  4.8534081075e+01  0.0000000000e+00 0. 9.
       21    -1     0     0   102   103  0.0000000000e+00  0.0000000000e+00 -1.1023397413e+03  1.1023397413e+03  0.0000000000e+00 0. 9.
        6     2     1     2   101     0  5.0401022682e+01 -5.3087787900e+01 -1.8532992777e+02  2.6266132312e+02  1.7112922668e+02  2.435221e-13 9.
       -6     2     1     2     0   103 -5.0401022682e+01  5.3087787900e+01 -8.6847573246e+02  8.8821249926e+02  1.7120972420e+02  1.151987e-13 9.
       24     2     3     0     0     0  3.6807678557e+01 -9.7777541114e+01 -1.0702349726e+02  1.7135475103e+02  8.3625169589e+01  1.536401e-14 9.
        5     1     3     0   101     0  1.3593344124e+01  4.4689753214e+01 -7.8306430511e+01  9.1306572087e+01  4.8000000000e+00 0. 9.
      -24     2     4     0     0     0  6.7467973684e+00  4.5678473685e+01 -2.4068731819e+02  2.5776654252e+02  7.9882182460e+01  8.184706e-14 9.
       -5     1     4     0     0   103 -5.7147820050e+01  7.4093142148e+00 -6.2778841427e+02  6.3044595674e+02  4.8000000000e+00 0. 9.
      -11     1     5     0     0     0  2.3828067438e+01 -3.5312851447e+01  4.5358407889e+00  4.2840963190e+01  5.1100000000e-04 0. 9.
       12     1     5     0     0     0  1.2979611119e+01 -6.2464689667e+01 -1.1155933805e+02  1.2851378784e+02  0.0000000000e+00 0. 9.
        3     1     7     0   104     0  2.0383642670e+01  5.3474687767e+01 -2.3352877906e+02  2.4043913111e+02  5.0000000000e-01 0. 9.
       -4     1     7     0     0   104 -1.3636845302e+01 -7.7962140817e+00 -7.1585391298e+00  1.7327411413e+01  1.5000000000e+00 0. 9.
#pdf   21   21  7.466782e-03  1.695907e-01  1.861284e+02  1.009255e+01  3.662328e-01
</event>
<event>
    12  9999  1.000000e+00  2.476621e+02  7.907063e-03  1.030627e-01
       21    -1     0     0   101   102  0.0000000000e+00  0.0000000000e+00  1.9500880390e+03  1.9500880390e+03  0.0000000000e+00 0. 9.
       21    -1     0     0   103   101  0.0000000000e+00  0.0000000000e+00 -4.2436382888e+01  4.2436382888e+01  0.0000000000e+00 0. 9.
        6     2     1     2   103     0 -1.1131637830e+02  1.4036500555e+02  4.4686798451e+02  5.1088803391e+02  1.7094419191e+02  3.282422e-13 9.
       -6     2     1     2     0   102  1.1131637830e+02 -1.4036500555e+02  1.4607836716e+03  1.4816363880e+03  1.7106659554e+02  3.706758e-13 9.
       24     2     3     0     0     0 -5.7911607153e+01  1.6089397463e+02  3.4096435825e+02  3.9042174731e+02  8.3257563354e+01  1.586932e-14 9.
        5     1     3     0   103     0 -5.3404771149e+01 -2.0528969077e+01  1.0590362626e+02  1.2046628660e+02  4.8000000000e+00 0. 9.
      -24     2     4     0     0     0  3.7472006617e+00 -6.2063252112e+01  8.5786946686e+02  8.6419742675e+02  8.3852736690e+01  7.726923e-14 9.
       -5     1     4     0     0   102  1.0756917764e+02 -7.8301753442e+01  6.0291420478e+02  6.1743896127e+02  4.8000000000e+00 0. 9.
       -1     1     5     0     0   104  2.3671854298e+00  7.5276493745e+01  8.3327956565e+01  1.1232012875e+02  3.3000000000e-01 0. 9.
        2     1     5     0   104     0 -6.0278792583e+01  8.5617480886e+01  2.5763640169e+02  2.7810161856e+02  3.3000000000e-01 0. 9.
        1     1     7     0   105     0 -2.6862170521e+01 -1.4292022968e+01  1.0859169500e+02  1.1277456827e+02  3.3000000000e-01 0. 9.
       -2     1     7     0     0   105  3.0609371182e+01 -4.7771229145e+01  7.4927777186e+02  7.5142285847e+02  3.3000000000e-01 0. 9.
#pdf   21   21  3.000135e-01  6.528674e-03  2.476198e+02  9.618165e-02  1.120715e+01
</event>
<event>
    12  9999  1.000000e+00  1.781715e+02  7.877320e-03  1.072395e-01
       21    -1     0     0   101   102  0.0000000000e+00  0.0000000000e+00  8.8509661245e+01  8.8509661245e+01  0.0000000000e+00 0. 9.
       21    -1     0     0   103   101  0.0000000000e+00  0.0000000000e+00 -4.8627836557e+02  4.8627836557e+02  0.0000000000e+00 0. 9.
        6     2     1     2   103     0  3.6307029073e+01  3.4475332306e+01 -3.4703800198e+02  3.9062607400e+02  1.7218189793e+02  1.220017e-13 9.
       -6     2     1     2     0   102 -3.6307029073e+01 -3.4475332306e+01 -5.0730702352e+01  1.8416195282e+02  1.6980951624e+02  3.486301e-13 9.
       24     2     3     0     0     0 -1.8920832051e+01  7.4743921120e+01 -1.9876963727e+02  2.2729137511e+02  7.8786730283e+01  1.215763e-14 9.
        5     1     3     0   103     0  5.5227861124e+01 -4.0268588814e+01 -1.4826836470e+02  1.6333469889e+02  4.8000000000e+00 0. 9.
      -24     2     4     0     0     0  2.8280552940e+00  4.3234105188e+01 -4.0978224191e+01  9.6478075539e+01  7.5839425457e+01  1.488315e-13 9.
       -5     1     4     0     0   102 -3.9135084367e+01 -7.7709437494e+01 -9.7524781601e+00  8.7683877277e+01  4.8000000000e+00 0. 9.
       -3     1     5     0     0   104  6.3304666598e+00  1.9955684044e+01 -1.4488016825e+02  1.4638585070e+02  5.0000000000e-01 0. 9.
        4     1     5     0   104     0 -2.5251298711e+01  5.4788237076e+01 -5.3889469025e+01  8.0905524411e+01  1.5000000000e+00 0. 9.
       15     1     7     0     0     0 -1.6228098327e+01  5.9527466699e+01 -2.4147633041e+01  6.6280734288e+01  1.7768200000e+00  1.089225e-01 9.
      -16     1     7     0     0     0  1.9056153621e+01 -1.6293361511e+01 -1.6830591150e+01  3.0197341251e+01  0.0000000000e+00 0. 9.
#pdf   21   21  1.361687e-02  7.481206e-02  1.770368e+02  6.365780e+00  1.204647e+00
</event>
<event>
    12  9999  1.000000e+00  3.263359e+02  7.932151e-03  9.980947e-02
        2    -1     0     0   101     0  0.0000000000e+00  0.0000000000e+00  1.8316396206e+02  1.8316396206e+02  0.0000000000e+00 0. 9.
       -2    -1     0     0     0   102  0.0000000000e+00  0.0000000000e+00 -6.7359505202e+02  6.7359505202e+02  0.0000000000e+00 0. 9.
        6     2     1     2   101     0 -1.9184842081e+02  2.0104899271e+02 -8.6895782112e+01  3.3792507789e+02  1.7151083721e+02  6.043791e-13 9.
       -6     2     1     2     0   102  1.9184842081e+02 -2.0104899271e+02 -4.0353530785e+02  5.1883393618e+02  1.7064991830e+02  1.116116e-13 9.
       24     2     3     0     0     0 -9.6259287674e+01  6.0951869199e+01 -8.8913599059e+01  1.6824420692e+02  8.6136544164e+01  1.245926e-13 9.
        5     1     3     0   101     0 -9.5589133134e+01  1.4009712351e+02  2.0178169463e+00  1.6968087098e+02  4.8000000000e+00 0. 9.
      -24     2     4     0     0     0  1.2922209119e+02 -2.0756921752e+02 -3.5786097194e+02  4.4089963401e+02  8.0899215835e+01  2.309029e-13 9.
       -5     1     4     0     0   102  6.2626329623e+01  6.5202248109e+00 -4.5674335910e+01  7.7934302168e+01  4.8000000000e+00 0. 9.
      -11     1     5     0     0     0 -1.1014076307e+02  5.0681846547e+01 -6.1761776602e+01  1.3606672741e+02  5.1100000000e-04 0. 9.
       12     1     5     0     0     0  1.3881475397e+01  1.0270022652e+01 -2.7151822456e+01  3.2177479503e+01  0.0000000000e+00 0. 9.
        1     1     7     0   103     0  4.8079527579e+00 -2.8535984942e+01 -1.0495991712e+01  3.0784632341e+01  3.3000000000e-01 0. 9.
       -2     1     7     0     0   103  1.2441413843e+02 -1.7903323258e+02 -3.4736498023e+02  4.1011500167e+02  3.3000000000e-01 0. 9.
#pdf    2   -2  2.817907e-02  1.036300e-01  3.261103e+02  6.575746e-01  6.607326e-02
</event>
<event>
    12  9999  1.000000e+00  2.203067e+02  7.896466e-03  1.045089e-01
       21    -1     0     0   101   102  0.0000000000e+00  0.0000000000e+00  6.8286996105e+01  6.8286996105e+01  0.0000000000e+00 0. 9.
       21    -1     0     0   102   103  0.0000000000e+00  0.0000000000e+00 -1.0282440967e+03  1.0282440967e+03  0.0000000000e+00 0. 9.
        6     2     1     2   101     0  9.8747742714e+01  9.1580405542e+01 -1.7170867755e+02  2.7741218495e+02  1.7127627694e+02  2.919539e-13 9.
       -6     2     1     2     0   103 -9.8747742714e+01 -9.1580405542e+01 -7.8824842307e+02  8.1911890789e+02  1.7743201912e+02  1.780738e-13 9.
       24     2     3     0     0     0  7.2460308086e+01  1.1645570097e+02 -6.9944052497e+01  1.6929702202e+02  7.0405146467e+01  8.441144e-15 9.
        5     1     3     0   101     0  2.6287434628e+01 -2.4875295430e+01 -1.0176462505e+02  1.0811516293e+02  4.8000000000e+00 0. 9.
      -24     2     4     0     0     0 -3.6772780615e+01 -1.2238412579e+02 -4.8961555521e+02  5.1253385464e+02  8.1470538270e+01  3.751019e-14 9.
       -5     1     4     0     0   103 -6.1974962099e+01  3.0803720245e+01 -2.9863286787e+02  3.0658505325e+02  4.8000000000e+00 0. 9.
       -1     1     5     0     0   104  4.5282396919e+01  2.4369534099e+01 -4.8987651108e+01  7.1023014045e+01  3.3000000000e-01 0. 9.
        2     1     5     0   104     0  2.7177911167e+01  9.2086166873e+01 -2.0956401390e+01  9.8274007977e+01  3.3000000000e-01 0. 9.
        3     1     7     0   105     0 -3.8777136229e+01 -5.6653895264e+01 -1.3064254435e+02  1.4758405923e+02  5.0000000000e-01 0. 9.
       -4     1     7     0     0   105  2.0043556145e+00 -6.5730230523e+01 -3.5897301086e+02  3.6494979541e+02  1.5000000000e+00 0. 9.
#pdf   21   21  1.050569e-02  1.581914e-01  2.178845e+02  7.819711e+00  4.032787e-01
</event>
<event>
    12  9999  1.000000e+00  2.163977e+02  7.894848e-03  1.047337e-01
       21    -1     0     0   101   102  0.0000000000e+00  0.0000000000e+00  7.1084535496e+01  7.1084535496e+01  0.0000000000e+00 0. 9.
       21    -1     0     0   102   103  0.0000000000e+00  0.0000000000e+00 -1.0080739596e+03  1.0080739596e+03  0.0000000000e+00 0. 9.
        6     2     1     2   101     0 -1.2993278632e+02  3.2128968127e+01 -1.4994281450e+02  2.6272970253e+02  1.6920180087e+02  1.331557e-14 9.
       -6     2     1     2     0   103  1.2993278632e+02 -3.2128968127e+01 -7.8704660963e+02  8.1642879259e+02  1.7087658730e+02  1.652175e-14 9.
       24     2     3     0     0     0 -3.6164899538e+00  6.6365567457e+00 -3.3492682277e+01  8.8978895161e+01  8.2087521177e+01  1.081306e-13 9.
        5     1     3     0   101     0 -1.2631629637e+02  2.5492411381e+01 -1.1645013222e+02  1.7375080737e+02  4.8000000000e+00 0. 9.
      -24     2     4     0     0     0  2.7596314780e+01  3.8370958130e+01 -3.1971019725e+02  3.3282838384e+02  7.9537637916e+01  5.935680e-14 9.
       -5     1     4     0     0   103  1.0233647154e+02 -7.0499926257e+01 -4.6733641238e+02  4.8360040875e+02  4.8000000000e+00 0. 9.
       -3     1     5     0     0   104  3.6847267611e+01 -1.0852546225e+00 -3.0144576991e+01  4.7621890239e+01  5.0000000000e-01 0. 9.
        4     1     5     0   104     0 -4.0463757565e+01  7.7218113681e+00 -3.3481052864e+00  4.1357004922e+01  1.5000000000e+00 0. 9.
        3     1     7     0   105     0  2.0613308878e+01 -1.8706490386e+01 -5.1749565742e+01  5.8763158867e+01  5.0000000000e-01 0. 9.
       -4     1     7     0     0   105  6.9830059024e+00  5.7077448516e+01 -2.6796063151e+02  2.7406522497e+02  1.5000000000e+00 0. 9.
#pdf   21   21  1.093608e-02  1.550883e-01  2.157407e+02  7.578311e+00  4.175867e-01
</event>
<event>
    12  9999  1.000000e+00  2.313106e+02  7.900875e-03  1.039017e-01
       21    -1     0     0   101   102  0.0000000000e+00  0.0000000000e+00  4.7076613135e+02  4.7076613135e+02  0.0000000000e+00 0. 9.
       21    -1     0     0   102   103  0.0000000000e+00  0.0000000000e+00 -1.1745883823e+02  1.1745883823e+02  0.0000000000e+00 0. 9.
        6     2     1     2   101     0 -9.9687405186e+01  1.1829924980e+02  2.3028281054e+02  3.2708085716e+02  1.7326114115e+02  4.859754e-14 9.
       -6     2     1     2     0   103  9.9687405186e+01 -1.1829924980e+02  1.2302448258e+02  2.6114411242e+02  1.7067200380e+02  1.976666e-14 9.
       24     2     3     0     0     0 -1.2777077232e+02  1.0743867841e+02  1.3872905172e+02  2.3058340499e+02  7.7810776822e+01  4.987201e-13 9.
        5     1     3     0   101     0  2.8083367132e+01  1.0860571395e+01  9.1553758822e+01  9.6497452168e+01  4.8000000000e+00 0. 9.
      -24     2     4     0     0     0  4.8106189161e+01 -1.1672212477e+02  2.5820364936e+01  1.5098609112e+02  7.8688300397e+01  3.474143e-14 9.
       -5     1     4     0     0   103  5.1581216025e+01 -1.5771250314e+00  9.7204117643e+01  1.1015802130e+02  4.8000000000e+00 0. 9.
       -3     1     5     0     0   104 -3.6043531865e+01  5.7573238128e+01  1.6643807414e+01  6.9936258572e+01  5.0000000000e-01 0. 9.
        4     1     5     0   104     0 -9.1727240453e+01  4.9865440281e+01  1.2208524431e+02  1.6064714642e+02  1.5000000000e+00 0. 9.
        3     1     7     0   105     0  3.2928410243e+01 -8.5880541552e+01  5.3871832875e+01  1.0659348946e+02  5.0000000000e-01 0. 9.
       -4     1     7     0     0   105  1.5177778918e+01 -3.0841583221e+01 -2.8051467939e+01  4.4392601658e+01  1.5000000000e+00 0. 9.
#pdf   21   21  7.242556e-02  1.807059e-02  2.303502e+02  1.225862e+00  5.022534e+00
</event>
<event>
    12  9999  1.000000e+00  2.459085e+02  7.906419e-03  1.031493e-01
       21    -1     0     0   101   102  0.0000000000e+00  0.0000000000e+00  1.1295047991e+02  1.1295047991e+02  0.0000000000e+00 0. 9.
       21    -1     0     0   103   101  0.0000000000e+00  0.0000000000e+00 -6.1598049198e+02  6.1598049198e+02  0.0000000000e+00 0. 9.
        6     2     1     2   103     0  1.7405394207e+02  2.8866819765e+01 -3.8360506912e+02  4.5580902608e+02  1.7170017813e+02  2.334411e-14 9.
       -6     2     1     2     0   102 -1.7405394207e+02 -2.8866819765e+01 -1.1942494295e+02  2.7312194581e+02  1.7089532542e+02  1.981076e-14 9.
       24     2     3     0     0     0  1.4873909643e+02  3.2335009962e+01 -1.7112892989e+02  2.4174824150e+02  7.7383654266e+01  2.410151e-14 9.
        5     1     3     0   103     0  2.5314845642e+01 -3.4681901973e+00 -2.1247613923e+02  2.1406078458e+02  4.8000000000e+00 0. 9.
      -24     2     4     0     0     0 -1.0912326502e+02  4.3495587273e+01 -9.8985590326e+01  1.7365779191e+02  8.0988446820e+01  2.106700e-14 9.
       -5     1     4     0     0   102 -6.4930677047e+01 -7.2362407038e+01 -2.0439352619e+01  9.9464153892e+01  4.8000000000e+00 0. 9.
      -15     1     5     0     0     0  6.5454086186e+01  2.8092683620e+01 -2.8928936278e+01  7.6899133382e+01  1.7768200000e+00  4.678712e-02 9.
       16     1     5     0     0     0  8.3285010243e+01  4.2423263418e+00 -1.4219999361e+02  1.6484910812e+02  0.0000000000e+00 0. 9.
        1     1     7     0   104     0  6.7573756184e+00  2.4201933204e+01 -1.9673853614e+01  3.1914966898e+01  3.3000000000e-01 0. 9.
       -2     1     7     0     0   104 -1.1588064064e+02  1.9293654068e+01 -7.9311736712e+01  1.4174282502e+02  3.3000000000e-01 0. 9.
#pdf   21   21  1.737700e-02  9.476623e-02  2.456283e+02  5.188092e+00  8.613625e-01
</event>
<event>
    12  9999  1.000000e+00  1.874512e+02  7.881891e-03  1.065733e-01
       21    -1     0     0   101   102  0.0000000000e+00  0.0000000000e+00  2.8344049536e+02  2.8344049536e+02  0.0000000000e+00 0. 9.
       21    -1     0     0   103   101  0.0000000000e+00  0.0000000000e+00 -1.2667573260e+02  1.2667573260e+02  0.0000000000e+00 0. 9.
        6     2     1     2   103     0  3.1193151569e+01 -7.0249685163e+01  1.0846934298e+02  2.1681785372e+02  1.7127858113e+02  4.471086e-14 9.
       -6     2     1     2     0   102 -3.1193151569e+01  7.0249685163e+01  4.8295419775e+01  1.9329837424e+02  1.7065691590e+02  9.237210e-14 9.
       24     2     3     0     0     0 -3.2714757238e+01 -7.8069681883e+01  5.5536638673e+01  1.3332962496e+02  8.6760244845e+01  3.477760e-13 9.
        5     1     3     0   103     0  6.3907908807e+01  7.8199967205e+00  5.2932704311e+01  8.3488228766e+01  4.8000000000e+00 0. 9.
      -24     2     4     0     0     0 -4.5056437052e+01  6.2066165564e+01  9.3882275819e+01  1.4471481611e+02  7.9032935289e+01  4.312547e-14 9.
       -5     1     4     0     0   102  1.3863285483e+01  8.1835195985e+00 -4.5586856043e+01  4.8583558138e+01  4.8000000000e+00 0. 9.
       -3     1     5     0     0   104 -2.9601391178e+01 -7.1499100615e+01  7.7876911242e+01  1.0978810069e+02  5.0000000000e-01 0. 9.
        4     1     5     0   104     0 -3.1133660605e+00 -6.5705812683e+00 -2.2340272568e+01  2.3541524268e+01  1.5000000000e+00 0. 9.
        1     1     7     0   105     0  1.4706895744e+01  1.7748928514e+01 -2.2399717104e+00  2.3161252537e+01  3.3000000000e-01 0. 9.
       -2     1     7     0     0   105 -5.9763332796e+01  4.4317237050e+01  9.6122247529e+01  1.2155356357e+02  3.3000000000e-01 0. 9.
#pdf   21   21  4.360623e-02  1.948857e-02  1.871679e+02  2.207493e+00  4.723610e+00
</event>
<event>
    12  9999  1.000000e+00  2.240494e+02  7.897989e-03  1.042982e-01
       21    -1     0     0   101   102  0.0000000000e+00  0.0000000000e+00  2.1985578042e+02  2.1985578042e+02  0.0000000000e+00 0. 9.
       21    -1     0     0   102   103  0.0000000000e+00  0.0000000000e+00 -2.5302956390e+02  2.5302956390e+02  0.0000000000e+00 0. 9.
        6     2     1     2   101     0  2.9635047852e+01 -1.4165704400e+02  5.7330264392e+01  2.3074731864e+02  1.7033088876e+02  7.408183e-14 9.
       -6     2     1     2     0   103 -2.9635047852e+01  1.4165704400e+02 -9.0504047870e+01  2.4213802568e+02  1.7174075411e+02  1.757503e-13 9.
       24     2     3     0     0     0  6.3560513565e+01 -1.3066808689e+02  8.3578581033e+01  1.8620847572e+02  8.1081005204e+01  1.808055e-13 9.
        5     1     3     0   101     0 -3.3925465714e+01 -1.0988957115e+01 -2.6248316641e+01  4.4538842922e+01  4.8000000000e+00 0. 9.
      -24     2     4     0     0     0 -3.1542674156e+01  1.0143117970e+02  1.0837129610e+01  1.3298293670e+02  7.9270382663e+01  1.686425e-13 9.
       -5     1     4     0     0   103  1.9076263042e+00  4.0225864307e+01 -1.0134117748e+02  1.0915508898e+02  4.8000000000e+00 0. 9.
       -1     1     5     0     0   104 -5.5918899950e+00  3.2812088199e+00  2.2739118096e+01  2.3647662819e+01  3.3000000000e-01 0. 9.
        2     1     5     0   104     0  6.9152403560e+01 -1.3394929571e+02  6.0839462937e+01  1.6256081290e+02  3.3000000000e-01 0. 9.
        1     1     7     0   105     0 -4.5931267806e+01  3.7201945079e+01 -1.7018474021e+01  6.1509376829e+01  3.3000000000e-01 0. 9.
       -2     1     7     0     0   105  1.4388593651e+01  6.4229234619e+01  2.7855603631e+01  7.1473559871e+01  3.3000000000e-01 0. 9.
#pdf   21   21  3.382397e-02  3.892763e-02  2.235119e+02  2.829440e+00  2.458075e+00
</event>
<event>
    12  9999  1.000000e+00  2.337035e+02  7.901807e-03  1.037744e-01
       21    -1     0     0   101   102  0.0000000000e+00  0.0000000000e+00  2.9590493774e+02  2.9590493774e+02  0.0000000000e+00 0. 9.
       21    -1     0     0   103   101  0.0000000000e+00  0.0000000000e+00 -3.4221215500e+02  3.4221215500e+02  0.0000000000e+00 0. 9.
        6     2     1     2   103     0 -1.5497116447e+02 -3.2309404710e+01 -2.3973553503e+02  3.3530163480e+02  1.7289910379e+02  1.418469e-13 9.
       -6     2     1     2     0   102  1.5497116447e+02  3.2309404710e+01  1.9342831778e+02  3.0281545794e+02  1.7094656475e+02  1.861928e-13 9.
       24     2     3     0     0     0 -1.7335746156e+01 -1.6406271040e+01 -4.3172195647e+01  9.4767636320e+01  8.0915836475e+01  1.533610e-13 9.
        5     1     3     0   103     0 -1.3763541831e+02 -1.5903133670e+01 -1.9656333939e+02  2.4053399848e+02  4.8000000000e+00 0. 9.
      -24     2     4     0     0     0  1.3575088042e+02 -3.6463127024e+01  1.5880186923e+02  2.2331004065e+02  6.9939112201e+01  6.136221e-14 9.
       -5     1     4     0     0   102  1.9220284047e+01  6.8772531733e+01  3.4626448549e+01  7.9505417293e+01  4.8000000000e+00 0. 9.
       -1     1     5     0     0   104 -3.4393745446e+01  1.5262888865e+01  1.1961716977e+00  3.7648708199e+01  3.3000000000e-01 0. 9.
        2     1     5     0   104     0  1.7057999290e+01 -3.1669159905e+01 -4.4368367345e+01  5.7118928121e+01  3.3000000000e-01 0. 9.
        3     1     7     0   105     0  6.0912331709e+01 -1.9454205423e+00  2.4407827359e+01  6.5651266947e+01  5.0000000000e-01 0. 9.
       -4     1     7     0     0   105  7.4838548709e+01 -3.4517706482e+01  1.3439404187e+02  1.5765877370e+02  1.5000000000e+00 0. 9.
#pdf   21   21  4.552384e-02  5.264802e-02  2.329865e+02  2.082804e+00  1.777880e+00
</event>
<event>
    12  9999  1.000000e+00  2.083599e+02  7.891428e-03  1.052123e-01
       21    -1     0     0   101   102  0.0000000000e+00  0.0000000000e+00  1.0172745549e+02  1.0172745549e+02  0.0000000000e+00 0. 9.
       21    -1     0     0   103   101  0.0000000000e+00  0.0000000000e+00 -8.6650874874e+02  8.6650874874e+02  0.0000000000e+00 0. 9.
        6     2     1     2   103     0  1.1345268575e+02 -4.0856766938e+01 -7.2827500785e+02  7.5780518813e+02  1.7129923754e+02  2.565351e-13 9.
       -6     2     1     2     0   102 -1.1345268575e+02  4.0856766938e+01 -3.6506285391e+01  2.1043101610e+02  1.6854588799e+02  3.191727e-13 9.
       24     2     3     0     0     0  1.0194421022e+02 -8.8168643075e+01 -6.0811082480e+02  6.2806186644e+02  8.0601496413e+01  2.156231e-13 9.
        5     1     3     0   103     0  1.1508475525e+01  4.7311876137e+01 -1.2016418305e+02  1.2974332168e+02  4.8000000000e+00 0. 9.
      -24     2     4     0     0     0 -2.8448056693e+01  5.0756340481e+00 -7.1098766086e+01  1.1181176772e+02  8.1312870261e+01  1.005866e-13 9.
       -5     1     4     0     0   102 -8.5004629056e+01  3.5781132890e+01  3.4592480695e+01  9.8619248387e+01  4.8000000000e+00 0. 9.
       -1     1     5     0     0   104  7.0938002056e+01 -1.5423278755e+01 -2.1058595368e+02  2.2274790785e+02  3.3000000000e-01 0. 9.
        2     1     5     0   104     0  3.1006208167e+01 -7.2745364320e+01 -3.9752487112e+02  4.0531395860e+02  3.3000000000e-01 0. 9.
        3     1     7     0   105     0 -1.7292360392e+01  3.5323078429e+01 -6.9058101956e+01  7.9473373172e+01  5.0000000000e-01 0. 9.
       -4     1     7     0     0   105 -1.1155696300e+01 -3.0247444381e+01 -2.0406641308e+00  3.2338394543e+01  1.5000000000e+00 0. 9.
#pdf   21   21  1.565038e-02  1.333090e-01  2.072402e+02  5.678680e+00  5.358153e-01
</event>
<event>
    12  9999  1.000000e+00  2.100453e+02  7.892156e-03  1.051101e-01
       21    -1     0     0   101   102  0.0000000000e+00  0.0000000000e+00  6.6955683989e+02  6.6955683989e+02  0.0000000000e+00 0. 9.
       21    -1     0     0   103   101  0.0000000000e+00  0.0000000000e+00 -6.5931821887e+01  6.5931821887e+01  0.0000000000e+00 0. 9.
        6     2     1     2   103     0 -1.0037432499e+02  7.0741472813e+01  2.9170606032e+02  3.5892872242e+02  1.6928686025e+02  1.758324e-13 9.
       -6     2     1     2     0   102  1.0037432499e+02 -7.0741472813e+01  3.1191895768e+02  3.7655993936e+02  1.7153597488e+02  1.422081e-14 9.
       24     2     3     0     0     0 -2.7018122871e+01  3.4475883095e+01  2.5149030224e+02  2.6762334150e+02  8.0351199828e+01  7.133766e-14 9.
        5     1     3     0   103     0 -7.3356202119e+01  3.6265589718e+01  4.0215758082e+01  9.1305380921e+01  4.8000000000e+00 0. 9.
      -24     2     4     0     0     0  1.0379335997e+02 -6.9466089522e+01  3.2762305398e+02  3.5973807729e+02  8.0473719847e+01  3.022924e-14 9.
       -5     1     4     0     0   102 -3.4190349822e+00 -1.2753832914e+00 -1.5704096302e+01  1.6821862067e+01  4.8000000000e+00 0. 9.
       -1     1     5     0     0   104 -4.6311373287e+01  2.5950425018e+00  8.3201989960e+01  9.5258372727e+01  3.3000000000e-01 0. 9.
        2     1     5     0   104     0  1.9293250416e+01  3.1880840593e+01  1.6828831228e+02  1.7236496877e+02  3.3000000000e-01 0. 9.
        1     1     7     0   105     0  3.4086084045e+01 -3.4291827877e+01  2.2848257719e+02  2.3354268895e+02  3.3000000000e-01 0. 9.
       -2     1     7     0     0   105  6.9707275927e+01 -3.5174261645e+01  9.9140476794e+01  1.2619538834e+02  3.3000000000e-01 0. 9.
#pdf   21   21  1.030087e-01  1.014336e-02  2.091349e+02  7.812529e-01  8.032950e+00
</event>
<event>
    12  9999  1.000000e+00  2.079578e+02  7.891254e-03  1.052369e-01
       21    -1     0     0   101   102  0.0000000000e+00  0.0000000000e+00  1.2877185192e+02  1.2877185192e+02  0.0000000000e+00 0. 9.
       21    -1     0     0   102   103  0.0000000000e+00  0.0000000000e+00 -3.3807047799e+02  3.3807047799e+02  0.0000000000e+00 0. 9.
        6     2     1     2   101     0 -7.2725445542e+01  9.3703136275e+01 -1.2378202758e+02  2.4229611275e+02  1.7121958920e+02  9.948275e-14 9.
       -6     2     1     2     0   103  7.2725445542e+01 -9.3703136275e+01 -8.5516598492e+01  2.2454621716e+02  1.7040729693e+02  1.490850e-13 9.
       24     2     3     0     0     0 -6.7190198852e+01  2.5648808443e+01 -9.2708032209e+00  1.0888737617e+02  8.1228866176e+01  1.189994e-13 9.
        5     1     3     0   101     0 -5.5352466896e+00  6.8054327832e+01 -1.1451122436e+02  1.3340873658e+02  4.8000000000e+00 0. 9.
      -24     2     4     0     0     0  4.4010104247e+01 -1.1803134825e+02 -2.4585617169e+01  1.5276838487e+02  8.2857941060e+01  5.710061e-13 9.
       -5     1     4     0     0   103  2.8715341295e+01  2.4328211979e+01 -6.0930981323e+01  7.1777832294e+01  4.8000000000e+00 0. 9.
      -11     1     5     0     0     0  8.6323301999e+00 -1.2991664276e+01  1.3678913643e+01  2.0746400749e+01  5.1100000000e-04 0. 9.
       12     1     5     0     0     0 -7.5822529052e+01  3.8640472719e+01 -2.2949716864e+01  8.8140975420e+01  0.0000000000e+00 0. 9.
       13     1     7     0     0     0 -4.7133753122e-01 -7.7921809383e+01 -4.4395377976e+01  8.9682725685e+01  1.0566000000e-01  1.460207e+06 9.
      -14     1     7     0     0     0  4.4481441779e+01 -4.0109538870e+01  1.9809760807e+01  6.3085659181e+01  0.0000000000e+00 0. 9.
#pdf   21   21  1.981105e-02  5.201084e-02  2.076245e+02  4.648356e+00  1.816084e+00
</event>
<event>
    12  9999  1.000000e+00  1.868332e+02  7.881594e-03  1.066163e-01
       21    -1     0     0   101   102  0.0000000000e+00  0.0000000000e+00  1.5772175598e+02  1.5772175598e+02  0.0000000000e+00 0. 9.
       21    -1     0     0   103   101  0.0000000000e+00  0.0000000000e+00 -2.5706475325e+02  2.5706475325e+02  0.0000000000e+00 0. 9.
        6     2     1     2   103     0  5.1018574825e+01  5.8199592674e+01 -1.2711737296e+02  2.2637427266e+02  1.7057666092e+02  1.784623e-13 9.
       -6     2     1     2     0   102 -5.1018574825e+01 -5.8199592674e+01  2.7774375694e+01  1.8841223657e+02  1.6952187877e+02  8.531261e-14 9.
       24     2     3     0     0     0 -4.3956956538e+00 -1.1595853179e+01 -1.0930351792e+02  1.3536592653e+02  7.8885290663e+01  6.526353e-14 9.
        5     1     3     0   103     0  5.5414270479e+01  6.9795445853e+01 -1.7813855035e+01  9.1008346132e+01  4.8000000000e+00 0. 9.
      -24     2     4     0     0     0 -4.1128552380e+01 -9.0883490266e+01  5.9451221316e+01  1.4158796665e+02  8.1002086141e+01  9.139156e-14 9.
       -5     1     4     0     0   102 -9.8900224451e+00  3.2683897592e+01 -3.1676845623e+01  4.6824269929e+01  4.8000000000e+00 0. 9.
       -1     1     5     0     0   104  2.7199932252e-01 -4.5504385549e+01 -6.5996277602e+01  8.0164459988e+01  3.3000000000e-01 0. 9.
        2     1     5     0   104     0 -4.6676949764e+00  3.3908532370e+01 -4.3307240322e+01  5.5201466540e+01  3.3000000000e-01 0. 9.
       11     1     7     0     0     0 -3.0455426681e+01 -1.0303474546e+02  3.6422271494e+01  1.1344722847e+02  5.1100000000e-04 0. 9.
      -12     1     7     0     0     0 -1.0673125698e+01  1.2151255197e+01  2.3028949822e+01  2.8140738174e+01  0.0000000000e+00 0. 9.
#pdf   21   21  2.426489e-02  3.954842e-02  1.863538e+02  3.893955e+00  2.441532e+00
</event>
<event>
    12  9999  1.000000e+00  1.930527e+02  7.884544e-03  1.061908e-01
       21    -1     0     0   101   102  0.0000000000e+00  0.0000000000e+00  5.7302292704e+01  5.7302292704e+01  0.0000000000e+00 0. 9.
       21    -1     0     0   102   103  0.0000000000e+00  0.0000000000e+00 -6.9239005858e+02  6.9239005858e+02  0.0000000000e+00 0. 9.
        6     2     1     2   101     0  9.1800142256e+01 -4.2454978442e+00 -4.1368175937e+02  4.5760758209e+02  1.7270440288e+02  3.679420e-14 9.
       -6     2     1     2     0   103 -9.1800142256e+01  4.2454978442e+00 -2.2140600650e+02  2.9208476919e+02  1.6687600879e+02  3.766874e-14 9.
       24     2     3     0     0     0  3.3030643334e+01 -1.3767337772e+01 -3.7801885404e+02  3.8804176968e+02  7.9984986187e+01  7.433481e-14 9.
        5     1     3     0   101     0  5.8769498923e+01  9.5218399279e+00 -3.5662905328e+01  6.9565812406e+01  4.8000000000e+00 0. 9.
      -24     2     4     0     0     0 -3.7420528703e+01 -2.3051282319e+01 -2.1158965458e+02  2.3026521450e+02  7.9499871049e+01  3.790058e-15 9.
       -5     1     4     0     0   103 -5.4379613553e+01  2.7296780163e+01 -9.8163519152e+00  6.1819554692e+01  4.8000000000e+00 0. 9.
      -13     1     5     0     0     0  5.4073129316e+01 -2.6240470827e+00 -1.6404376739e+02  1.7274593402e+02  1.0566000000e-01  2.045900e+05 9.
       14     1     5     0     0     0 -2.1042485982e+01 -1.1143290689e+01 -2.1397508666e+02  2.1529583566e+02  0.0000000000e+00 0. 9.
        3     1     7     0   104     0 -1.9836283313e+01  1.7671152503e+01 -1.9094764880e+01  3.2720143831e+01  5.0000000000e-01 0. 9.
       -4     1     7     0     0   104 -1.7584245390e+01 -4.0722434822e+01 -1.9249488970e+02  1.9754507067e+02  1.5000000000e+00 0. 9.
#pdf   21   21  8.815737e-03  1.065215e-01  1.905069e+02  8.927932e+00  7.531108e-01
</event>
<event>
    12  9999  1.000000e+00  2.311250e+02  7.900803e-03  1.039116e-01
       21    -1     0     0   101   102  0.0000000000e+00  0.0000000000e+00  1.0419542330e+03  1.0419542330e+03  0.0000000000e+00 0. 9.
       21    -1     0     0   102   103  0.0000000000e+00  0.0000000000e+00 -7.6650195791e+01  7.6650195791e+01  0.0000000000e+00 0. 9.
        6     2     1     2   101     0 -1.3636303173e+02 -5.4925482553e+01  8.1168340722e+02  8.4543265431e+02  1.8524236654e+02  3.380777e-14 9.
       -6     2     1     2     0   103  1.3636303173e+02  5.4925482553e+01  1.5362062998e+02  2.7317177448e+02  1.7149879113e+02  4.129346e-13 9.
       24     2     3     0     0     0 -1.2315089576e+02  2.9851540712e+01  5.1416100059e+02  5.3574841729e+02  8.1286988460e+01  3.264054e-14 9.
        5     1     3     0   101     0 -1.3212135969e+01 -8.4777023265e+01  2.9752240663e+02  3.0968423701e+02  4.8000000000e+00 0. 9.
      -24     2     4     0     0     0  1.5336197836e+02  2.6245221302e+01  8.4762840913e+01  1.9651698540e+02  8.5002813504e+01  2.623672e-14 9.
       -5     1     4     0     0   103 -1.6998946636e+01  2.8680261251e+01  6.8857789070e+01  7.6654789072e+01  4.8000000000e+00 0. 9.
       -3     1     5     0     0   104 -4.9031393540e+01 -2.6876630459e+01  1.5990709645e+02  1.6940177187e+02  5.0000000000e-01 0. 9.
        4     1     5     0   104     0 -7.4119502219e+01  5.6728171170e+01  3.5425390414e+02  3.6634664542e+02  1.5000000000e+00 0. 9.
       11     1     7     0     0     0 -7.9102740891e+00  1.3304766764e+01  8.3918142910e+00  1.7607152018e+01  5.1100000000e-04 0. 9.
      -12     1     7     0     0     0  1.6127225245e+02  1.2940454538e+01  7.6371026622e+01  1.7890983339e+02  0.0000000000e+00 0. 9.
#pdf   21   21  1.603007e-01  1.179234e-02  2.258839e+02  3.921900e-01  7.142173e+00
</event>
<event>
    12  9999  1.000000e+00  2.809870e+02  7.918524e-03  1.015476e-01
       21    -1     0     0   101   102  0.0000000000e+00  0.0000000000e+00  1.6420206376e+02  1.6420206376e+02  0.0000000000e+00 0. 9.
       21    -1     0     0   103   101  0.0000000000e+00  0.0000000000e+00 -4.8199503763e+02  4.8199503763e+02  0.0000000000e+00 0. 9.
        6     2     1     2   103     0  8.5978216276e+01  2.0584786239e+02 -1.4321468740e+02  3.1566741401e+02  1.7137640870e+02  3.914875e-14 9.
       -6     2     1     2     0   102 -8.5978216276e+01 -2.0584786239e+02 -1.7457828648e+02  3.3052968738e+02  1.7031353443e+02  1.197744e-14 9.
       24     2     3     0     0     0  1.0514782628e+02  8.8110028577e+01 -9.8909281004e+01  1.8832660950e+02  8.2851816339e+01  3.930868e-14 9.
        5     1     3     0   103     0 -1.9169610002e+01  1.1773783381e+02 -4.4305406391e+01  1.2734080451e+02  4.8000000000e+00 0. 9.
      -24     2     4     0     0     0  7.9620387152e+00 -1.4272132187e+02 -7.2209888539e+01  1.7784681172e+02  7.7346303460e+01  3.882441e-14 9.
       -5     1     4     0     0   102 -9.3940254991e+01 -6.3126540521e+01 -1.0236839794e+02  1.5268287567e+02  4.8000000000e+00 0. 9.
       -3     1     5     0     0   104  3.2874647307e+01 -6.3016209176e+00 -4.9056266063e+01  5.9390404122e+01  5.0000000000e-01 0. 9.
        4     1     5     0   104     0  7.2273178972e+01  9.4411649495e+01 -4.9853014942e+01  1.2893620538e+02  1.5000000000e+00 0. 9.
        3     1     7     0   105     0 -9.0717597041e+00 -5.6184074069e+01  9.3881201947e+00  5.7683046070e+01  5.0000000000e-01 0. 9.
       -4     1     7     0     0   105  1.7033798419e+01 -8.6537247796e+01 -8.1598008734e+01  1.2016376565e+02  1.5000000000e+00 0. 9.
#pdf   21   21  2.526186e-02  7.415308e-02  2.806640e+02  3.706709e+00  1.170739e+00
</event>
<event>
    12  9999  1.000000e+00  2.192672e+02  7.896039e-03  1.045682e-01
       21    -1     0     0   101   102  0.0000000000e+00  0.0000000000e+00  1.6109163216e+02  1.6109163216e+02  0.0000000000e+00 0. 9.
       21    -1     0     0   102   103  0.0000000000e+00  0.0000000000e+00 -2.9861554327e+02  2.9861554327e+02  0.0000000000e+00 0. 9.
        6     2     1     2   101     0  1.2377419712e+02  6.1793849250e+01 -6.3251752264e+01  2.2774042235e+02  1.6948859587e+02  6.023913e-14 9.
       -6     2     1     2     0   103 -1.2377419712e+02 -6.1793849250e+01 -7.4272158843e+01  2.3196675308e+02  1.7074451462e+02  1.643628e-15 9.
       24     2     3     0     0     0  7.7760920432e+01  1.0661301587e+02 -3.0237895128e+01  1.5535994093e+02  7.6218665970e+01  2.333051e-14 9.
        5     1     3     0   101     0  4.6013276693e+01 -4.4819166624e+01 -3.3013857136e+01  7.2380481429e+01  4.8000000000e+00 0. 9.
      -24     2     4     0     0     0 -4.5573109315e+01 -9.0461984431e+01 -1.6759297782e+01  1.3063540898e+02  8.0774111551e+01  1.020266e-13 9.
       -5     1     4     0     0   103 -7.8201087810e+01  2.8668135181e+01 -5.7512861061e+01  1.0133134410e+02  4.8000000000e+00 0. 9.
       -3     1     5     0     0   104  1.4159993429e+00 -1.1459978246e+01 -4.5417119511e+00  1.2418264894e+01  5.0000000000e-01 0. 9.
        4     1     5     0   104     0  7.6344921089e+01  1.1807299412e+02 -2.5696183177e+01  1.4294167603e+02  1.5000000000e+00 0. 9.
       15     1     7     0     0     0 -5.7948052600e-01 -3.9703598190e+01 -4.2403692519e+01  5.8120063107e+01  1.7768200000e+00  5.014839e-03 9.
      -16     1     7     0     0     0 -4.4993628789e+01 -5.0758386241e+01  2.5644394737e+01  7.2515345871e+01  0.0000000000e+00 0. 9.
#pdf   21   21  2.478333e-02  4.594085e-02  2.187805e+02  3.802456e+00  2.070559e+00
</event>
<event>
    12  9999  1.000000e+00  1.947267e+02  7.885323e-03  1.060791e-01
       21    -1     0     0   101   102  0.0000000000e+00  0.0000000000e+00  3.4494377645e+01  3.4494377645e+01  0.0000000000e+00 0. 9.
       21    -1     0     0   102   103  0.0000000000e+00  0.0000000000e+00 -1.1978897758e+03  1.1978897758e+03  0.0000000000e+00 0. 9.
        6     2     1     2   101     0  8.4630430709e+01  2.9035998983e+01 -7.6324152749e+02  7.8812921601e+02  1.7494179836e+02  4.360783e-14 9.
       -6     2     1     2     0   103 -8.4630430709e+01 -2.9035998983e+01 -4.0015387070e+02  4.4425493747e+02  1.7097932678e+02  6.824474e-13 9.
       24     2     3     0     0     0  7.2147602355e+01 -3.7997580365e+01 -6.0936693983e+02  6.1975537454e+02  7.8227643975e+01  4.036087e-14 9.
        5     1     3     0   101     0  1.2482828353e+01  6.7033579348e+01 -1.5387458766e+02  1.6837384147e+02  4.8000000000e+00 0. 9.
      -24     2     4     0     0     0 -7.0524848766e+01 -3.0766055387e+01 -1.3574280416e+02  1.7941873782e+02  8.8570142484e+01  3.759713e-14 9.
       -5     1     4     0     0   103 -1.4105581943e+01  1.7300564038e+00 -2.6441106654e+02  2.6483619965e+02  4.8000000000e+00 0. 9.
       -3     1     5     0     0   104  7.0774001906e+01 -6.8021420769e+00 -5.2480968108e+02  5.2960426720e+02  5.0000000000e-01 0. 9.
        4     1     5     0   104     0  1.3736004490e+00 -3.1195438288e+01 -8.4557258750e+01  9.0151107344e+01  1.5000000000e+00 0. 9.
        1     1     7     0   105     0 -2.4733546528e+01 -9.3312837602e+00 -1.2495331919e+02  1.2771946624e+02  3.3000000000e-01 0. 9.
       -2     1     7     0     0   105 -4.5791302237e+01 -2.1434771627e+01 -1.0789484974e+01  5.1699271574e+01  3.3000000000e-01 0. 9.
#pdf   21   21  5.306827e-03  1.842907e-01  1.929749e+02  1.290311e+01  3.136342e-01
</event>
<event>
    12  9999  1.000000e+00  1.874814e+02  7.881906e-03  1.065712e-01
       21    -1     0     0   101   102  0.0000000000e+00  0.0000000000e+00  9.0329183586e+01  9.0329183586e+01  0.0000000000e+00 0. 9.
       21    -1     0     0   103   101  0.0000000000e+00  0.0000000000e+00 -4.4205652308e+02  4.4205652308e+02  0.0000000000e+00 0. 9.
        6     2     1     2   103     0  5.4391691523e+01  6.0992005202e+01 -2.6613636826e+02  3.2430678894e+02  1.6633654450e+02  1.050289e-13 9.
       -6     2     1     2     0   102 -5.4391691523e+01 -6.0992005202e+01 -8.5590971236e+01  2.0807891773e+02  1.7115063786e+02  1.878599e-13 9.
       24     2     3     0     0     0  9.7655714967e+01  3.3520365583e+01 -2.0693236881e+02  2.4585540107e+02  8.3448303747e+01  5.301163e-14 9.
        5     1     3     0   103     0 -4.3264023444e+01  2.7471639619e+01 -5.9203999443e+01  7.8451387865e+01  4.8000000000e+00 0. 9.
      -24     2     4     0     0     0  1.2110022631e+01 -3.5071335202e+01 -1.0089956198e+02  1.3492324762e+02  8.1528583580e+01  4.661639e-14 9.
       -5     1     4     0     0   102 -6.6501714154e+01 -2.5920670000e+01  1.5308590740e+01  7.3155670109e+01  4.8000000000e+00 0. 9.
       -1     1     5     0     0   104  5.5327038062e+01  3.3910157558e+01 -4.6243322225e+01  7.9683961227e+01  3.3000000000e-01 0. 9.
        2     1     5     0   104     0  4.2328676905e+01 -3.8979197543e-01 -1.6068904659e+02  1.6617143984e+02  3.3000000000e-01 0. 9.
       15     1     7     0     0     0  1.9762368412e+01  1.6290442491e+01 -6.9853140814e+01  7.4421422270e+01  1.7768200000e+00  3.853380e-02 9.
      -16     1     7     0     0     0 -7.6523457809e+00 -5.1361777693e+01 -3.1046421162e+01  6.0501825350e+01  0.0000000000e+00 0. 9.
#pdf   21   21  1.389680e-02  6.800870e-02  1.853276e+02  6.262763e+00  1.346849e+00
</event>
<event>
    12  9999  1.000000e+00  2.481303e+02  7.907234e-03  1.030397e-01
       21    -1     0     0   101   102  0.0000000000e+00  0.0000000000e+00  8.5312985312e+01  8.5312985312e+01  0.0000000000e+00 0. 9.
       21    -1     0     0   102   103  0.0000000000e+00  0.0000000000e+00 -7.5204303457e+02  7.5204303457e+02  0.0000000000e+00 0. 9.
        6     2     1     2   101     0 -1.7836968669e+02  2.4837958935e+01 -2.4958514365e+02  3.5212853947e+02  1.7108212952e+02  1.327371e-13 9.
       -6     2     1     2     0   103  1.7836968669e+02 -2.4837958935e+01 -4.1714490560e+02  4.8522748042e+02  1.7030315953e+02  6.370733e-14 9.
       24     2     3     0     0     0 -8.0404361739e+01  6.9590806748e+01 -9.4309210340e+01  1.6309500343e+02  7.9987569147e+01  3.993712e-14 9.
        5     1     3     0   101     0 -9.7965324950e+01 -4.4752847814e+01 -1.5527593331e+02  1.8903353604e+02  4.8000000000e+00 0. 9.
      -24     2     4     0     0     0  1.6491888944e+02 -6.0751977065e+01 -3.9705003626e+02  4.4166620841e+02  8.0816245559e+01  5.443115e-14 9.
       -5     1     4     0     0   103  1.3450797249e+01  3.5914018130e+01 -2.0094869345e+01  4.3561272007e+01  4.8000000000e+00 0. 9.
      -13     1     5     0     0     0 -4.2432606587e+01 -1.1117755629e+01 -3.1610023246e+01  5.4067877022e+01  1.0566000000e-01  3.392640e+05 9.
       14     1     5     0     0     0 -3.7971755152e+01  8.0708562377e+01 -6.2699187094e+01  1.0902712641e+02  0.0000000000e+00 0. 9.
       13     1     7     0     0     0  1.4431680679e+02 -1.7442518257e+01 -2.9181703789e+02  3.2601959593e+02  1.0566000000e-01  8.983161e+05 9.
      -14     1     7     0     0     0  2.0602082651e+01 -4.3309458808e+01 -1.0523299837e+02  1.1564661247e+02  0.0000000000e+00 0. 9.
#pdf   21   21  1.312507e-02  1.156989e-01  2.478625e+02  6.553071e+00  6.492010e-01
</event>
<event>
    12  9999  1.000000e+00  1.864816e+02  7.881424e-03  1.066409e-01
       21    -1     0     0   101   102  0.0000000000e+00  0.0000000000e+00  1.8264594061e+03  1.8264594061e+03  0.0000000000e+00 0. 9.
       21    -1     0     0   102   103  0.0000000000e+00  0.0000000000e+00 -3.1971483471e+01  3.1971483471e+01  0.0000000000e+00 0. 9.
        6     2     1     2   101     0 -8.5583579389e+00  7.6379218534e+01  1.4923752121e+03  1.5041643869e+03  1.7152171446e+02  6.561518e-14 9.
       -6     2     1     2     0   103  8.5583579389e+00 -7.6379218534e+01  3.0211271051e+02  3.5426650268e+02  1.6830221197e+02  1.434887e-13 9.
       24     2     3     0     0     0 -5.0515677043e+01  9.6424566206e+01  9.2687592639e+02  9.3673622866e+02  8.0785200218e+01  3.741161e-15 9.
        5     1     3     0   101     0  4.1957319104e+01 -2.0045347672e+01  5.6549928570e+02  5.6742815820e+02  4.8000000000e+00 0. 9.
      -24     2     4     0     0     0 -2.9169415464e+01 -3.4601327279e+01  1.0387328047e+02  1.4813380584e+02  9.5424626743e+01  1.647278e-14 9.
       -5     1     4     0     0   103  3.7727773403e+01 -4.1777891255e+01  1.9823943004e+02  2.0613269684e+02  4.8000000000e+00 0. 9.
       -3     1     5     0     0   104 -3.9030759255e+01  1.2976802344e+01  4.9589714133e+02  4.9760026361e+02  5.0000000000e-01 0. 9.
        4     1     5     0   104     0 -1.1484917789e+01  8.3447763863e+01  4.3097878506e+02  4.3913596505e+02  1.5000000000e+00 0. 9.
       11     1     7     0     0     0  3.1861210825e+01 -1.3979692797e+01  1.3880038653e+01  3.7459632129e+01  5.1100000000e-04 0. 9.
      -12     1     7     0     0     0 -6.1030626289e+01 -2.0621634482e+01  8.9993241816e+01  1.1067417371e+02  0.0000000000e+00 0. 9.
#pdf   21   21  2.809938e-01  4.918690e-03  1.850207e+02  1.245840e-01  1.358115e+01
</event>
<event>
    12  9999  1.000000e+00  1.782072e+02  7.877338e-03  1.072368e-01
       21    -1     0     0   101   102  0.0000000000e+00  0.0000000000e+00  5.7477967634e+02  5.7477967634e+02  0.0000000000e+00 0. 9.
       21    -1     0     0   103   101  0.0000000000e+00  0.0000000000e+00 -8.8190911961e+01  8.8190911961e+01  0.0000000000e+00 0. 9.
        6     2     1     2   103     0  4.3347777521e+01  2.1644653634e+01  4.0706165084e+01  1.8279283295e+02  1.7148967041e+02  3.178103e-14 9.
       -6     2     1     2     0   102 -4.3347777521e+01 -2.1644653634e+01  4.4588259929e+02  4.8017775535e+02  1.7149887326e+02  1.255796e-13 9.
       24     2     3     0     0     0 -5.7425002676e+00  1.8141620990e+01 -2.6029843409e+01  9.9733447929e+01  9.4377503498e+01  3.950885e-14 9.
        5     1     3     0   103     0  4.9090277789e+01  3.5030326438e+00  6.6736008494e+01  8.3059385025e+01  4.8000000000e+00 0. 9.
      -24     2     4     0     0     0  2.2711599085e+01 -4.5200101311e+01  1.5635769142e+02  1.8224082808e+02  7.8772621256e+01  3.287872e-14 9.
       -5     1     4     0     0   102 -6.6059376606e+01  2.3555447677e+01  2.8952490787e+02  2.9793692727e+02  4.8000000000e+00 0. 9.
       -3     1     5     0     0   104  2.1405534965e+01 -3.0565985658e+01  1.8634156126e+00  3.7365742655e+01  5.0000000000e-01 0. 9.
        4     1     5     0   104     0 -2.7148035233e+01  4.8707606648e+01 -2.7893259022e+01  6.2367705275e+01  1.5000000000e+00 0. 9.
        3     1     7     0   105     0  1.4630362093e+00  2.2223037536e+01  2.8965458699e+01  3.6541095631e+01  5.0000000000e-01 0. 9.
       -4     1     7     0     0   105  2.1248562876e+01 -6.7423138847e+01  1.2739223272e+02  1.4569973245e+02  1.5000000000e+00 0. 9.
#pdf   21   21  8.842764e-02  1.356783e-02  1.782028e+02  9.747845e-01  6.384389e+00
</event>
<event>
    12  9999  1.000000e+00  1.758272e+02  7.876129e-03  1.074146e-01
       21    -1     0     0   101   102  0.0000000000e+00  0.0000000000e+00  1.7505567276e+02  1.7505567276e+02  0.0000000000e+00 0. 9.
       21    -1     0     0   103   101  0.0000000000e+00  0.0000000000e+00 -1.7767915607e+02  1.7767915607e+02  0.0000000000e+00 0. 9.
        6     2     1     2   103     0  3.6337927981e+01 -1.8997823806e+01 -1.5043955168e+01  1.7651677654e+02  1.7102774481e+02  5.447405e-14 9.
       -6     2     1     2     0   102 -3.6337927981e+01  1.8997823806e+01  1.2420471862e+01  1.7621805229e+02  1.7093031186e+02  1.784097e-14 9.
       24     2     3     0     0     0  4.5282536566e+01 -5.3601513265e+01  3.7168559056e+01  1.1306121738e+02  8.0484201869e+01  1.234947e-13 9.
        5     1     3     0   103     0 -8.9446085855e+00  3.4603689458e+01 -5.2212514224e+01  6.3455559161e+01  4.8000000000e+00 0. 9.
      -24     2     4     0     0     0  1.7146289422e+01 -3.3146545110e+01  3.9744926767e+01  9.6535792306e+01  7.9666877050e+01  9.107457e-14 9.
       -5     1     4     0     0   102 -5.3484217403e+01  5.2144368916e+01 -2.7324454905e+01  7.9682259987e+01  4.8000000000e+00 0. 9.
       -3     1     5     0     0   104  1.1550387425e+01 -3.5193558303e+01  5.8380883938e+01  6.9141706698e+01  5.0000000000e-01 0. 9.
        4     1     5     0   104     0  3.3732149141e+01 -1.8407954962e+01 -2.1212324881e+01  4.3919510680e+01  1.5000000000e+00 0. 9.
        3     1     7     0   105     0  4.5738128222e+01 -3.1493901434e+00  2.6857250082e+01  5.3136210944e+01  5.0000000000e-01 0. 9.
       -2     1     7     0     0   105 -2.8591838800e+01 -2.9997154966e+01  1.2887676686e+01  4.3399581362e+01  3.3000000000e-01 0. 9.
#pdf   21   21  2.693164e-02  2.733525e-02  1.757798e+02  3.546635e+00  3.498329e+00
</event>
<event>
    12  9999  1.000000e+00  2.869768e+02  7.920442e-03  1.012989e-01
       21    -1     0     0   101   102  0.0000000000e+00  0.0000000000e+00  5.3070685176e+02  5.3070685176e+02  0.0000000000e+00 0. 9.
       21    -1     0     0   103   101  0.0000000000e+00  0.0000000000e+00 -1.9522305417e+02  1.9522305417e+02  0.0000000000e+00 0. 9.
        6     2     1     2   103     0  1.0561575681e+02 -2.0354150121e+02  3.7529188747e+00  2.8784314452e+02  1.7394183122e+02  2.009916e-13 9.
       -6     2     1     2     0   102 -1.0561575681e+02  2.0354150121e+02  3.3173087872e+02  4.3808676141e+02  1.7114556326e+02  2.295549e-13 9.
       24     2     3     0     0     0  1.0575743826e+02 -9.8430071359e+01 -4.3021261604e+01  1.7269412491e+02  8.4257445567e+01  3.859874e-14 9.
        5     1     3     0   103     0 -1.4168144732e-01 -1.0511142985e+02  4.6774180479e+01  1.1514901961e+02  4.8000000000e+00 0. 9.
      -24     2     4     0     0     0 -7.3539331116e+01  1.3572775530e+02  1.1017845973e+02  2.0412925335e+02  7.5494385906e+01  5.261426e-14 9.
       -5     1     4     0     0   102 -3.2076425696e+01  6.7813745910e+01  2.2155241899e+02  2.3395750806e+02  4.8000000000e+00 0. 9.
      -11     1     5     0     0     0  9.0788108235e+00 -3.4862678208e+01 -4.4151307913e+01  5.6983937461e+01  5.1100000000e-04 0. 9.
       12     1     5     0     0     0  9.6678627435e+01 -6.3567393152e+01  1.1300463093e+00  1.1571018745e+02  0.0000000000e+00 0. 9.
       15     1     7     0     0     0 -8.0982968960e+01  1.3621031311e+02  1.1449694120e+02  1.9551009512e+02  1.7768200000e+00  8.485335e-02 9.
      -16     1     7     0     0     0  7.4436378444e+00 -4.8255781573e-01 -4.3184814643e+00  8.6191582281e+00  0.0000000000e+00 0. 9.
#pdf   21   21  8.164721e-02  3.003432e-02  2.861374e+02  1.034088e+00  3.143897e+00
</event>
<event>
    12  9999  1.000000e+00  2.411451e+02  7.904646e-03  1.033886e-01
       21    -1     0     0   101   102  0.0000000000e+00  0.0000000000e+00  1.7807807545e+03  1.7807807545e+03  0.0000000000e+00 0. 9.
       21    -1     0     0   103   101  0.0000000000e+00  0.0000000000e+00 -5.9621285544e+01  5.9621285544e+01  0.0000000000e+00 0. 9.
        6     2     1     2   103     0  1.3141957931e+02 -1.0773550190e+02  2.4134729713e+02  3.4104006122e+02  1.7082669969e+02  2.717430e-13 9.
       -6     2     1     2     0   102 -1.3141957931e+02  1.0773550190e+02  1.4798121718e+03  1.4993619788e+03  1.7135995875e+02  8.787818e-14 9.
       24     2     3     0     0     0  6.4001826984e+01 -9.8115558886e+01  6.2138481856e+01  1.4926796704e+02  6.8533483096e+01  7.827835e-14 9.
        5     1     3     0   103     0  6.7417752330e+01 -9.6199430173e+00  1.7920881528e+02  1.9177209418e+02  4.8000000000e+00 0. 9.
      -24     2     4     0     0     0 -6.5789813385e+01  7.2740562087e+01  1.2754008057e+03  1.2817867996e+03  8.1918835918e+01  3.735756e-14 9.
       -5     1     4     0     0   102 -6.5629765928e+01  3.4994939816e+01  2.0441136616e+02  2.1757517920e+02  4.8000000000e+00 0. 9.
       -1     1     5     0     0   104 -6.5044690302e-01 -5.3680550192e+01  4.2300176249e+01  6.8347921408e+01  3.3000000000e-01 0. 9.
        2     1     5     0   104     0  6.4652273887e+01 -4.4435008693e+01  1.9838305607e+01  8.0920045636e+01  3.3000000000e-01 0. 9.
       13     1     7     0     0     0  1.1023590621e+01  2.2472629377e+01  1.1167603552e+02  1.1444687280e+02  1.0566000000e-01  1.268998e+06 9.
      -14     1     7     0     0     0 -7.6813404006e+01  5.0267932710e+01  1.1637247702e+03  1.1673399268e+03  0.0000000000e+00 0. 9.
#pdf   21   21  2.739663e-01  9.172505e-03  2.409560e+02  1.254725e-01  8.689693e+00
</event>
<event>
    12  9999  1.000000e+00  1.856477e+02  7.881020e-03  1.066995e-01
       21    -1     0     0   101   102  0.0000000000e+00  0.0000000000e+00  1.0391426933e+03  1.0391426933e+03  0.0000000000e+00 0. 9.
       21    -1     0     0   102   103  0.0000000000e+00  0.0000000000e+00 -7.4711747002e+01  7.4711747002e+01  0.0000000000e+00 0. 9.
        6     2     1     2   101     0 -6.6863692568e+01 -2.9726024237e+01  8.9677643417e+02  9.1566179013e+02  1.6992395690e+02  5.937177e-14 9.
       -6     2     1     2     0   103  6.6863692568e+01  2.9726024237e+01  6.7654512113e+01  1.9819265015e+02  1.7131492540e+02  1.265893e-13 9.
       24     2     3     0     0     0 -1.0503575896e+02 -9.9497200607e+00  5.4051370447e+02  5.5678244909e+02  8.1976358167e+01  1.659662e-13 9.
        5     1     3     0   101     0  3.8172066395e+01 -1.9776304176e+01  3.5626272970e+02  3.5887934105e+02  4.8000000000e+00 0. 9.
      -24     2     4     0     0     0  1.2627453887e+00  6.9758795496e+01  2.6554443143e+01  1.1090941743e+02  8.2023632865e+01  9.318173e-15 9.
       -5     1     4     0     0   103  6.5600947179e+01 -4.0032771260e+01  4.1100068970e+01  8.7283232725e+01  4.8000000000e+00 0. 9.
       -3     1     5     0     0   104 -5.1369973602e+01 -4.4381063082e+01  3.2572529932e+02  3.3272477150e+02  5.0000000000e-01 0. 9.
        4     1     5     0   104     0 -5.3665785361e+01  3.4431343021e+01  2.1478840515e+02  2.2405767759e+02  1.5000000000e+00 0. 9.
       15     1     7     0     0     0  1.0926421532e+01  6.9047471238e+01 -1.2179408453e+01  7.0981934684e+01  1.7768200000e+00  1.847979e-02 9.
      -16     1     7     0     0     0 -9.6636761436e+00  7.1132425823e-01  3.8733851596e+01  3.9927482744e+01  0.0000000000e+00 0. 9.
#pdf   21   21  1.598681e-01  1.149411e-02  1.850096e+02  4.057016e-01  7.282413e+00
</event>
<event>
    12  9999  1.000000e+00  2.535196e+02  7.909182e-03  1.027787e-01
       21    -1     0     0   101   102  0.0000000000e+00  0.0000000000e+00  5.9676820966e+02  5.9676820966e+02  0.0000000000e+00 0. 9.
       21    -1     0     0   103   101  0.0000000000e+00  0.0000000000e+00 -1.1894066938e+02  1.1894066938e+02  0.0000000000e+00 0. 9.
        6     2     1     2   103     0  1.8344324203e+02  4.6822125940e+01  1.2839180187e+02  2.8363858613e+02  1.6769811637e+02  1.610306e-13 9.
       -6     2     1     2     0   102 -1.8344324203e+02 -4.6822125940e+01  3.4943573842e+02  4.3207029291e+02  1.6951598215e+02  4.982288e-13 9.
       24     2     3     0     0     0  1.0745042846e+02  3.4974216618e+01  6.5759345065e+00  1.3949481689e+02  8.1527729162e+01  9.932610e-14 9.
        5     1     3     0   103     0  7.5992813571e+01  1.1847909322e+01  1.2181586736e+02  1.4414376924e+02  4.8000000000e+00 0. 9.
      -24     2     4     0     0     0 -1.5000112301e+02 -1.7944350614e+01  3.4764775685e+02  3.8758953178e+02  8.0897130226e+01  3.814260e-14 9.
       -5     1     4     0     0   102 -3.3442119017e+01 -2.8877775326e+01  1.7879815661e+00  4.4480761124e+01  4.8000000000e+00 0. 9.
       -3     1     5     0     0   104  1.0807670893e+02  5.2741407012e+01  1.1973978599e+01  1.2085469453e+02  5.0000000000e-01 0. 9.
        4     1     5     0   104     0 -6.2628047253e-01 -1.7767190394e+01 -5.3980440924e+00  1.8640122364e+01  1.5000000000e+00 0. 9.
        3     1     7     0   105     0 -4.3648588697e+01 -2.6835641784e+01  1.9299157398e+02  1.9967811245e+02  5.0000000000e-01 0. 9.
       -4     1     7     0     0   105 -1.0635253431e+02  8.8912911702e+00  1.5465618287e+02  1.8791141933e+02  1.5000000000e+00 0. 9.
#pdf   21   21  9.181049e-02  1.829856e-02  2.529158e+02  8.963682e-01  4.960524e+00
</event>
<event>
    12  9999  1.000000e+00  1.842920e+02  7.880360e-03  1.067954e-01
       21    -1     0     0   101   102  0.0000000000e+00  0.0000000000e+00  8.4710081719e+01  8.4710081719e+01  0.0000000000e+00 0. 9.
       21    -1     0     0   103   101  0.0000000000e+00  0.0000000000e+00 -9.2776278914e+02  9.2776278914e+02  0.0000000000e+00 0. 9.
        6     2     1     2   103     0  1.6331412830e+00  7.0716298694e+01 -8.0333535867e+02  8.2427890175e+02  1.7054192250e+02  2.013450e-13 9.
       -6     2     1     2     0   102 -1.6331412830e+00 -7.0716298694e+01 -3.9717348753e+01  1.8819396911e+02  1.6981177864e+02  5.254795e-15 9.
       24     2     3     0     0     0 -6.0197790968e+01  2.1663404715e+01 -5.3308046060e+02  5.4269410010e+02  7.9050816986e+01  4.997909e-14 9.
        5     1     3     0   103     0  6.1830932251e+01  4.9052893980e+01 -2.7025489807e+02  2.8158480165e+02  4.8000000000e+00 0. 9.
      -24     2     4     0     0     0 -4.6188369818e+01 -9.5134813606e+01 -2.9046493769e+01  1.3605627251e+02  8.0520880669e+01  3.307695e-14 9.
       -5     1     4     0     0   102  4.4555228535e+01  2.4418514911e+01 -1.0670854984e+01  5.2137696597e+01  4.8000000000e+00 0. 9.
       -1     1     5     0     0   104 -5.0439839521e+01 -2.2417149430e+01 -2.4901716935e+02  2.5506149362e+02  3.3000000000e-01 0. 9.
        4     1     5     0   104     0 -9.7579514470e+00  4.4080554145e+01 -2.8406329125e+02  2.8763260648e+02  1.5000000000e+00 0. 9.
        3     1     7     0   105     0 -4.2192720141e+01 -7.0817732241e+00  1.3485631927e+00  4.2807076139e+01  5.0000000000e-01 0. 9.
       -4     1     7     0     0   105 -3.9956496777e+00 -8.8053040382e+01 -3.0395056962e+01  9.3249196375e+01  1.5000000000e+00 0. 9.
#pdf   21   21  1.303232e-02  1.427327e-01  1.839552e+02  6.594392e+00  4.888877e-01
</event>
<event>
    12  9999  1.000000e+00  2.770551e+02  7.917243e-03  1.017145e-01
       21    -1     0     0   101   102  0.0000000000e+00  0.0000000000e+00  2.9116147270e+02  2.9116147270e+02  0.0000000000e+00 0. 9.
       21    -1     0     0   102   103  0.0000000000e+00  0.0000000000e+00 -2.6390916436e+02  2.6390916436e+02  0.0000000000e+00 0. 9.
        6     2     1     2   101     0 -1.2655576411e+02 -1.7792600972e+02  2.2625648102e+01  2.7818763066e+02  1.7088713099e+02  1.451916e-13 9.
       -6     2     1     2     0   103  1.2655576411e+02  1.7792600972e+02  4.6266602373e+00  2.7688300639e+02  1.7020213534e+02  3.070947e-13 9.
       24     2     3     0     0     0 -9.0954402248e+01 -5.6294245000e+01 -3.3640833011e+01  1.3944073861e+02  8.2887083622e+01  4.039951e-14 9.
        5     1     3     0   101     0 -3.5601361860e+01 -1.2163176473e+02  5.6266481113e+01  1.3874689205e+02  4.8000000000e+00 0. 9.
      -24     2     4     0     0     0  2.4139342526e+01  7.5660474939e+01 -3.4592371520e+01  1.2685455753e+02  9.2672710509e+01  7.189186e-16 9.
       -5     1     4     0     0   103  1.0241642158e+02  1.0226553479e+02  3.9219031757e+01  1.5002844886e+02  4.8000000000e+00 0. 9.
      -11     1     5     0     0     0 -5.6260216587e+01 -6.1509892891e+01 -5.3573420054e+01  9.9089808913e+01  5.1100000000e-04 0. 9.
       12     1     5     0     0     0 -3.4694185661e+01  5.2156478911e+00  1.9932587043e+01  4.0350929702e+01  0.0000000000e+00 0. 9.
       11     1     7     0     0     0  4.6486455364e+01  5.4010763053e+01 -5.4677275737e+01  8.9820696613e+01  5.1100000000e-04 0. 9.
      -12     1     7     0     0     0 -2.2347112838e+01  2.1649711886e+01  2.0084904217e+01  3.7033860916e+01  0.0000000000e+00 0. 9.
#pdf   21   21  4.479407e-02  4.060141e-02  2.768443e+02  2.097562e+00  2.327046e+00
</event>
<event>
    12  9999  1.000000e+00  1.998211e+02  7.887652e-03  1.057466e-01
       21    -1     0     0   101   102  0.0000000000e+00  0.0000000000e+00  2.5516273180e+02  2.5516273180e+02  0.0000000000e+00 0. 9.
       21    -1     0     0   102   103  0.0000000000e+00  0.0000000000e+00 -1.6157721314e+02  1.6157721314e+02  0.0000000000e+00 0. 9.
        6     2     1     2   101     0 -1.0367048670e+02 -3.2045720116e+00  9.7049427247e+00  1.9966276998e+02  1.7033260612e+02  3.795350e-13 9.
       -6     2     1     2     0   103  1.0367048670e+02  3.2045720116e+00  8.3880575934e+01  2.1707717495e+02  1.7125626929e+02  1.899741e-13 9.
       24     2     3     0     0     0 -6.6829100401e+01 -6.6127599622e+01 -1.0753882529e+01  1.2377997431e+02  7.9792530720e+01  5.463339e-14 9.
        5     1     3     0   101     0 -3.6841386303e+01  6.2923027610e+01  2.0458825253e+01  7.5882795673e+01  4.8000000000e+00 0. 9.
      -24     2     4     0     0     0  1.0052197814e+02  1.5280108265e+00  1.2269691974e+02  1.7780285115e+02  8.0326314846e+01  4.632106e-14 9.
       -5     1     4     0     0   103  3.1485085643e+00  1.6765611851e+00 -3.8816343809e+01  3.9274323804e+01  4.8000000000e+00 0. 9.
       -3     1     5     0     0   104 -7.0553441002e+01 -1.7948835892e+01  4.8890450303e+00  7.2966440974e+01  5.0000000000e-01 0. 9.
        4     1     5     0   104     0  3.7243406016e+00 -4.8178763730e+01 -1.5642927559e+01  5.0813533336e+01  1.5000000000e+00 0. 9.
       11     1     7     0     0     0  3.1710212344e+01  3.7609210298e+01  6.2366330490e+01  7.9432672404e+01  5.1100000000e-04 0. 9.
      -12     1     7     0     0     0  6.8811765795e+01 -3.6081199471e+01  6.0330589252e+01  9.8370178746e+01  0.0000000000e+00 0. 9.
#pdf   21   21  3.925580e-02  2.485803e-02  1.994268e+02  2.451707e+00  3.802719e+00
</event>
<event>
    12  9999  1.000000e+00  2.325294e+02  7.901351e-03  1.038366e-01
       21    -1     0     0   101   102  0.0000000000e+00  0.0000000000e+00  4.2816155247e+02  4.2816155247e+02  0.0000000000e+00 0. 9.
       21    -1     0     0   102   103  0.0000000000e+00  0.0000000000e+00 -1.4595809963e+02  1.4595809963e+02  0.0000000000e+00 0. 9.
        6     2     1     2   101     0 -1.4130064663e+02  7.0349256266e+01  2.4636282157e+02  3.3859915095e+02  1.7041084055e+02  1.035222e-13 9.
       -6     2     1     2     0   103  1.4130064663e+02 -7.0349256266e+01  3.5840631278e+01  2.3552050115e+02  1.7108613332e+02  2.055667e-14 9.
       24     2     3     0     0     0 -1.7150053086e+02  6.0590897743e+01  2.2291796519e+02  2.9885044205e+02  8.0842306567e+01  3.935239e-14 9.
        5     1     3     0   101     0  3.0199884232e+01  9.7583585227e+00  2.3444856375e+01  3.9748708899e+01  4.8000000000e+00 0. 9.
      -24     2     4     0     0     0  1.7209951720e+02 -6.1293335146e+01  3.7798544259e+01  2.0300199013e+02  8.0037249409e+01  1.591786e-14 9.
       -5     1     4     0     0   103 -3.0798870571e+01 -9.0559211196e+00 -1.9579129815e+00  3.2518511021e+01  4.8000000000e+00 0. 9.
       -1     1     5     0     0   104  5.0999670910e+00  1.3305175399e+01  6.8461209994e+00  1.5811882540e+01  3.3000000000e-01 0. 9.
        2     1     5     0   104     0 -1.7660049795e+02  4.7285722344e+01  2.1607184419e+02  2.8303855951e+02  3.3000000000e-01 0. 9.
       15     1     7     0     0     0  8.1166256679e+01 -6.1724514084e+01  4.5636407840e+01  1.1173054941e+02  1.7768200000e+00  1.683516e-01 9.
      -16     1     7     0     0     0  9.0933260524e+01  4.3117893790e-01 -7.8378635806e+00  9.1271440715e+01  0.0000000000e+00 0. 9.
#pdf   21   21  6.587101e-02  2.245509e-02  2.322816e+02  1.374053e+00  4.150293e+00
</event>
<event>
    12  9999  1.000000e+00  1.949911e+02  7.885445e-03  1.060616e-01
       21    -1     0     0   101   102  0.0000000000e+00  0.0000000000e+00  1.8519349904e+02  1.8519349904e+02  0.0000000000e+00 0. 9.
       21    -1     0     0   103   101  0.0000000000e+00  0.0000000000e+00 -2.4087537086e+02  2.4087537086e+02  0.0000000000e+00 0. 9.
        6     2     1     2   103     0  9.2788602996e+01  5.3302810603e+00 -1.0970219143e+02  2.2372297224e+02  1.7140379448e+02  2.177208e-13 9.
       -6     2     1     2     0   102 -9.2788602996e+01 -5.3302810603e+00  5.4020319608e+01  2.0234589766e+02  1.7142791670e+02  4.461354e-14 9.
       24     2     3     0     0     0  7.1359808100e+01  4.7944001658e+01 -1.2798059252e+02  1.7241739379e+02  7.7187279471e+01  1.103899e-13 9.
        5     1     3     0   103     0  2.1428794896e+01 -4.2613720598e+01  1.8278401090e+01  5.1305578452e+01  4.8000000000e+00 0. 9.
      -24     2     4     0     0     0 -8.3803538480e+01  4.2305557691e+01  7.8489335227e+01  1.4783280525e+02  8.2952813643e+01  3.057771e-14 9.
       -5     1     4     0     0   102 -8.9850645165e+00 -4.7635838751e+01 -2.4469015619e+01  5.4513092402e+01  4.8000000000e+00 0. 9.
       -3     1     5     0     0   104  4.7858405278e+01  2.4196588640e+01 -1.6624264573e+01  5.6147288716e+01  5.0000000000e-01 0. 9.
        4     1     5     0   104     0  2.3501402822e+01  2.3747413019e+01 -1.1135632795e+02  1.1627010508e+02  1.5000000000e+00 0. 9.
        3     1     7     0   105     0  9.6377303540e+00 -1.2727450970e+01  4.6731777180e+00  1.6642188695e+01  5.0000000000e-01 0. 9.
       -4     1     7     0     0   105 -9.3441268834e+01  5.5033008661e+01  7.3816157509e+01  1.3119061656e+02  1.5000000000e+00 0. 9.
#pdf   21   21  2.849131e-02  3.705775e-02  1.949805e+02  3.355047e+00  2.601169e+00
</event>
<event>
    12  9999  1.000000e+00  1.982232e+02  7.886928e-03  1.058498e-01
       21    -1     0     0   101   102  0.0000000000e+00  0.0000000000e+00  5.4808491661e+02  5.4808491661e+02  0.0000000000e+00 0. 9.
       21    -1     0     0   103   101  0.0000000000e+00  0.0000000000e+00 -1.2859581175e+02  1.2859581175e+02  0.0000000000e+00 0. 9.
        6     2     1     2   103     0  9.3752248127e+01 -3.6861957717e+01 -1.5299464588e+01  1.9885628272e+02  1.7076726736e+02  6.114780e-14 9.
       -6     2     1     2     0   102 -9.3752248127e+01  3.6861957717e+01  4.3478856944e+02  4.7782444565e+02  1.7066579266e+02  3.718184e-13 9.
       24     2     3     0     0     0  9.4055172634e+01  3.2805711209e+01 -1.5537937240e+01  1.2902238890e+02  8.0515583310e+01  5.995753e-14 9.
        5     1     3     0   103     0 -3.0292450676e-01 -6.9667668926e+01  2.3847265141e-01  6.9833893820e+01  4.8000000000e+00 0. 9.
      -24     2     4     0     0     0 -6.8279325179e+01 -3.8797853107e+01  2.0093915800e+02  2.3067699167e+02  8.1657759052e+01  1.585049e-13 9.
       -5     1     4     0     0   102 -2.5472922948e+01  7.5659810824e+01  2.3384941144e+02  2.4714745398e+02  4.8000000000e+00 0. 9.
      -13     1     5     0     0     0  2.5375239252e+01 -1.5025368634e+01  2.2496245676e+01  3.7091194417e+01  1.0566000000e-01  1.660613e+05 9.
       14     1     5     0     0     0  6.8679933382e+01  4.7831079843e+01 -3.8034182916e+01  9.1931194479e+01  0.0000000000e+00 0. 9.
       15     1     7     0     0     0 -7.0061132211e+01 -3.5226745846e+01  8.8862366214e+01  1.1852916556e+02  1.7768200000e+00  2.585003e-01 9.
      -16     1     7     0     0     0  1.7818070316e+00 -3.5711072604e+00  1.1207679179e+02  1.1214782611e+02  0.0000000000e+00 0. 9.
#pdf   21   21  8.432076e-02  1.978397e-02  1.981795e+02  1.026404e+00  4.658086e+00
</event>
<event>
    12  9999  1.000000e+00  2.455413e+02  7.906283e-03  1.031676e-01
       21    -1     0     0   101   102  0.0000000000e+00  0.0000000000e+00  1.3764542169e+02  1.3764542169e+02  0.0000000000e+00 0. 9.
       21    -1     0     0   102   103  0.0000000000e+00  0.0000000000e+00 -4.3835652670e+02  4.3835652670e+02  0.0000000000e+00 0. 9.
        6     2     1     2   101     0  5.5664156638e+01 -1.7307173820e+02 -1.4130580651e+02  2.8010448995e+02  1.5949567216e+02  6.232758e-14 9.
       -6     2     1     2     0   103 -5.5664156638e+01  1.7307173820e+02 -1.5940529850e+02  2.9589745845e+02  1.7056650265e+02  2.604348e-13 9.
       24     2     3     0     0     0  9.5292184984e+01 -1.0480513633e+02 -8.6076775066e+01  1.8364726899e+02  7.9072062580e+01  1.164933e-14 9.
        5     1     3     0   101     0 -3.9628028346e+01 -6.8266601871e+01 -5.5229031440e+01  9.6457220961e+01  4.8000000000e+00 0. 9.
      -24     2     4     0     0     0  7.4816165157e+00  1.6027931725e+02 -1.4332271654e+02  2.2931875206e+02  7.9374144708e+01  9.762090e-14 9.
       -5     1     4     0     0   103 -6.3145773153e+01  1.2792420949e+01 -1.6082581966e+01  6.6578706382e+01  4.8000000000e+00 0. 9.
      -15     1     5     0     0     0  2.6783882801e+01 -6.0597439491e+01 -1.6777804425e+00  6.6297798510e+01  1.7768200000e+00  1.613674e-02 9.
       16     1     5     0     0     0  6.8508302182e+01 -4.4207696837e+01 -8.4398994623e+01  1.1734947048e+02  0.0000000000e+00 0. 9.
        3     1     7     0   104     0  7.9979313425e+00  2.1353015689e+01  7.7354200009e+00  2.4083291041e+01  5.0000000000e-01 0. 9.
       -4     1     7     0     0   104 -5.1631482677e-01  1.3892630156e+02 -1.5105813654e+02  2.0523546102e+02  1.5000000000e+00 0. 9.
#pdf   21   21  2.117622e-02  6.743947e-02  2.418495e+02  4.368846e+00  1.331563e+00
</event>
<event>
    12  9999  1.000000e+00  3.117239e+02  7.927974e-03  1.003352e-01
       21    -1     0     0   101   102  0.0000000000e+00  0.0000000000e+00  3.5897683563e+02  3.5897683563e+02  0.0000000000e+00 0. 9.
       21    -1     0     0   103   101  0.0000000000e+00  0.0000000000e+00 -6.1903765414e+02  6.1903765414e+02  0.0000000000e+00 0. 9.
        6     2     1     2   103     0 -2.5349399914e+02  5.7196248309e+01 -4.9696077620e+02  5.8693654861e+02  1.7318741465e+02  1.448892e-14 9.
       -6     2     1     2     0   102  2.5349399914e+02 -5.7196248309e+01  2.3689995768e+02  3.9107794117e+02  1.7114247777e+02  1.346982e-13 9.
       24     2     3     0     0     0 -1.4088199930e+02  8.2868388614e+01 -2.1550109795e+02  2.8266181785e+02  8.2110124202e+01  4.969895e-14 9.
        5     1     3     0   103     0 -1.1261199984e+02 -2.5672140305e+01 -2.8145967825e+02  3.0427473075e+02  4.8000000000e+00 0. 9.
      -24     2     4     0     0     0  2.1925345755e+02 -9.1491678187e+01  2.3225557053e+02  3.4215758210e+02  8.1770135891e+01  7.911650e-15 9.
       -5     1     4     0     0   102  3.4240541592e+01  3.4295429878e+01  4.6443871555e+00  4.8920359066e+01  4.8000000000e+00 0. 9.
      -15     1     5     0     0     0 -1.7624929759e+01  3.1668516874e+01 -9.9212026230e+01  1.0563955863e+02  1.7768200000e+00  1.032169e-03 9.
       16     1     5     0     0     0 -1.2325706955e+02  5.1199871740e+01 -1.1628907172e+02  1.7702225922e+02  0.0000000000e+00 0. 9.
       11     1     7     0     0     0  9.2895548193e+00 -2.2395960123e+01  5.0376250567e+01  5.5907436715e+01  5.1100000000e-04 0. 9.
      -12     1     7     0     0     0  2.0996390273e+02 -6.9095718064e+01  1.8187931996e+02  2.8625014539e+02  0.0000000000e+00 0. 9.
#pdf   21   21  5.522721e-02  9.523656e-02  3.111597e+02  1.651778e+00  8.354764e-01
</event>
<event>
    12  9999  1.000000e+00  2.904034e+02  7.921522e-03  1.011595e-01
       21    -1     0     0   101   102  0.0000000000e+00  0.0000000000e+00  2.6062586216e+03  2.6062586216e+03  0.0000000000e+00 0. 9.
       21    -1     0     0   103   101  0.0000000000e+00  0.0000000000e+00 -5.3884172331e+01  5.3884172331e+01  0.0000000000e+00 0. 9.
        6     2     1     2   103     0  2.1383882714e+02  9.6301387202e+01  4.3523130545e+02  5.2316065571e+02  1.7108413507e+02  7.652203e-14 9.
       -6     2     1     2     0   102 -2.1383882714e+02 -9.6301387202e+01  2.1171431439e+03  2.1369821383e+03  1.7145426931e+02  3.358387e-13 9.
       24     2     3     0     0     0  5.7292888111e+01 -6.2857147871e+00  1.8241787477e+02  2.0856819672e+02  8.3080842621e+01  6.735958e-14 9.
        5     1     3     0   103     0  1.5654593903e+02  1.0258710199e+02  2.5281343068e+02  3.1459245899e+02  4.8000000000e+00 0. 9.
      -24     2     4     0     0     0 -3.0338456384e+01 -2.4336078180e+01  8.2697623857e+02  8.3183652367e+02  8.0929823392e+01  1.569507e-14 9.
       -5     1     4     0     0   102 -1.8350037076e+02 -7.1965309022e+01  1.2901669053e+03  1.3051456146e+03  4.8000000000e+00 0. 9.
       -1     1     5     0     0   104  4.1091521829e+01 -2.1980851131e+01  3.2149824767e+01  5.6616173618e+01  3.3000000000e-01 0. 9.
        2     1     5     0   104     0  1.6201366282e+01  1.5695136344e+01  1.5026805000e+02  1.5195202310e+02  3.3000000000e-01 0. 9.
        1     1     7     0   105     0 -5.4227326675e+01 -1.6849909756e+01  7.0694274975e+02  7.0921977041e+02  3.3000000000e-01 0. 9.
       -2     1     7     0     0   105  2.3888870291e+01 -7.4861684239e+00  1.2003348881e+02  1.2261675325e+02  3.3000000000e-01 0. 9.
#pdf   21   21  4.009629e-01  8.289873e-03  2.902943e+02  3.029417e-02  9.407111e+00
</event>
<event>
    12  9999  1.000000e+00  2.172946e+02  7.895222e-03  1.046817e-01
       21    -1     0     0   101   102  0.0000000000e+00  0.0000000000e+00  2.1316985287e+01  2.1316985287e+01  0.0000000000e+00 0. 9.
       21    -1     0     0   103   101  0.0000000000e+00  0.0000000000e+00 -2.3832986604e+03  2.3832986604e+03  0.0000000000e+00 0. 9.
        6     2     1     2   103     0  1.3360056640e+02 -1.0341437862e+01 -8.6293963067e+02  8.8994752734e+02  1.7142268972e+02  5.337724e-15 9.
       -6     2     1     2     0   102 -1.3360056640e+02  1.0341437862e+01 -1.4990420444e+03  1.5146681183e+03  1.7069388113e+02  1.904697e-13 9.
       24     2     3     0     0     0  2.4339066587e+01 -5.1178962607e+01 -4.6509613473e+02  4.7532931014e+02  8.0074104194e+01  4.161259e-14 9.
        5     1     3     0   103     0  1.0926149981e+02  4.0837524745e+01 -3.9784349594e+02  4.1461821720e+02  4.8000000000e+00 0. 9.
      -24     2     4     0     0     0 -8.0963119550e+01 -3.2391812747e+01 -1.2851850269e+03  1.2902695991e+03  7.4100125210e+01  6.317891e-14 9.
       -5     1     4     0     0   102 -5.2637446851e+01  4.2733250609e+01 -2.1385701748e+02  2.2439851926e+02  4.8000000000e+00 0. 9.
       -3     1     5     0     0   104  4.0940129616e+01 -1.6863753860e+01 -3.7336429272e+02  3.7598088447e+02  5.0000000000e-01 0. 9.
        4     1     5     0   104     0 -1.6601063029e+01 -3.4315208746e+01 -9.1731842001e+01  9.9348425664e+01  1.5000000000e+00 0. 9.
        1     1     7     0   105     0 -2.5635041905e+01 -6.0016589324e+00 -9.7172746519e+01  1.0067684366e+02  3.3000000000e-01 0. 9.
       -2     1     7     0     0   105 -5.5328077645e+01 -2.6390153815e+01 -1.1880122804e+03  1.1895927554e+03  3.3000000000e-01 0. 9.
#pdf   21   21  3.279536e-03  3.666613e-01  2.170080e+02  1.801302e+01  4.925055e-02
</event>
<event>
    12  9999  1.000000e+00  2.751828e+02  7.916627e-03  1.017950e-01
       21    -1     0     0   101   102  0.0000000000e+00  0.0000000000e+00  3.4887060228e+02  3.4887060228e+02  0.0000000000e+00 0. 9.
       21    -1     0     0   103   101  0.0000000000e+00  0.0000000000e+00 -2.2464477900e+02  2.2464477900e+02  0.0000000000e+00 0. 9.
        6     2     1     2   103     0  1.7930194241e+00 -2.1644366942e+02  1.1488902580e+02  2.9855601584e+02  1.7054362900e+02  9.026823e-14 9.
       -6     2     1     2     0   102 -1.7930194241e+00  2.1644366942e+02  9.3367974909e+00  2.7495936544e+02  1.6930564050e+02  8.376615e-14 9.
       24     2     3     0     0     0 -7.4252046373e+00 -2.3531025901e+02  8.6973701525e+01  2.6329656056e+02  7.9590215405e+01  4.086048e-14 9.
        5     1     3     0   103     0  9.2182240615e+00  1.8866589584e+01  2.7915324270e+01  3.5259455278e+01  4.8000000000e+00 0. 9.
      -24     2     4     0     0     0 -1.3554509311e+01  1.2515366668e+02  6.9393251883e+01  1.6495020692e+02  8.0907245346e+01  2.210861e-13 9.
       -5     1     4     0     0   102  1.1761489887e+01  9.1290002738e+01 -6.0056454392e+01  1.1000915852e+02  4.8000000000e+00 0. 9.
       -3     1     5     0     0   104 -3.3485000519e+01 -7.0699021560e+01  4.9157828797e+01  9.2392310510e+01  5.0000000000e-01 0. 9.
        4     1     5     0   104     0  2.6059795881e+01 -1.6461123745e+02  3.7815872727e+01  1.7090425005e+02  1.5000000000e+00 0. 9.
        3     1     7     0   105     0  1.8808740872e+01  9.8820573560e+01  2.4283825604e+01  1.0348540321e+02  5.0000000000e-01 0. 9.
       -4     1     7     0     0   105 -3.2363250183e+01  2.6333093124e+01  4.5109426279e+01  6.1464803710e+01  1.5000000000e+00 0. 9.
#pdf   21   21  5.367240e-02  3.456074e-02  2.748008e+02  1.720694e+00  2.743470e+00
</event>
<event>
    12  9999  1.000000e+00  1.936135e+02  7.884806e-03  1.061532e-01
       21    -1     0     0   101   102  0.0000000000e+00  0.0000000000e+00  2.2127393326e+02  2.2127393326e+02  0.0000000000e+00 0. 9.
       21    -1     0     0   102   103  0.0000000000e+00  0.0000000000e+00 -2.5960639657e+02  2.5960639657e+02  0.0000000000e+00 0. 9.
        6     2     1     2   101     0 -9.0080474477e+01  2.1563607070e+01  1.2263549607e+02  2.2805387875e+02  1.6849221254e+02  2.300954e-13 9.
       -6     2     1     2     0   103  9.0080474477e+01 -2.1563607070e+01 -1.6096795938e+02  2.5282645108e+02  1.7155479996e+02  9.405193e-14 9.
       24     2     3     0     0     0 -1.0591715929e+02  5.1185521088e+01  5.5077851734e+01  1.5245405280e+02  7.9813947783e+01  9.125887e-14 9.
        5     1     3     0   101     0  1.5836684817e+01 -2.9621914018e+01  6.7557644340e+01  7.5599825958e+01  4.8000000000e+00 0. 9.
      -24     2     4     0     0     0  1.2914009443e+02 -4.8841707727e+00 -1.2499324307e+02  1.9695984460e+02  8.0429164216e+01  1.022204e-13 9.
       -5     1     4     0     0   103 -3.9059619957e+01 -1.6679436297e+01 -3.5974716312e+01  5.5866606485e+01  4.8000000000e+00 0. 9.
       -1     1     5     0     0   104  4.8818791172e+00  2.6456706553e+01  2.0353265395e+01  3.3736543652e+01  3.3000000000e-01 0. 9.
        2     1     5     0   104     0 -1.1079903841e+02  2.4728814535e+01  3.4724586339e+01  1.1871750914e+02  3.3000000000e-01 0. 9.
        1     1     7     0   105     0 -1.1397625573e+01  1.6496324668e+00 -9.0218608970e+00  1.4633182498e+01  3.3000000000e-01 0. 9.
       -2     1     7     0     0   105  1.4053772001e+02 -6.5338032395e+00 -1.1597138217e+02  1.8232666210e+02  3.3000000000e-01 0. 9.
#pdf   21   21  3.404214e-02  3.993945e-02  1.922735e+02  2.830679e+00  2.413471e+00
</event>
<event>
    12  9999  1.000000e+00  2.017988e+02  7.888540e-03  1.056204e-01
       21    -1     0     0   101   102  0.0000000000e+00  0.0000000000e+00  5.7270917240e+01  5.7270917240e+01  0.0000000000e+00 0. 9.
       21    -1     0     0   102   103  0.0000000000e+00  0.0000000000e+00 -7.5804529185e+02  7.5804529185e+02  0.0000000000e+00 0. 9.
        6     2     1     2   101     0  9.0390346295e+01 -5.7320665679e+01 -2.4863070394e+02  3.2011826374e+02  1.7088710431e+02  7.038582e-14 9.
       -6     2     1     2     0   103 -9.0390346295e+01  5.7320665679e+01 -4.5214367067e+02  4.9519794535e+02  1.7126305129e+02  5.233362e-14 9.
       24     2     3     0     0     0  7.0479693499e+01 -7.7827109545e+01 -9.4737359416e+01  1.6351957337e+02  8.2091640447e+01  1.394612e-13 9.
        5     1     3     0   101     0  1.9910652796e+01  2.0506443866e+01 -1.5389334452e+02  1.5659869036e+02  4.8000000000e+00 0. 9.
      -24     2     4     0     0     0 -9.4949948930e+01  8.2169986454e+01 -4.4387079489e+02  4.6818388988e+02  8.0046690835e+01  2.889552e-16 9.
       -5     1     4     0     0   103  4.5596026349e+00 -2.4849320775e+01 -8.2728757770e+00  2.7014055467e+01  4.8000000000e+00 0. 9.
      -15     1     5     0     0     0  1.1108060090e+01 -3.3319496835e+01  8.6928729231e+00  3.6225695263e+01  1.7768200000e+00  2.711920e-02 9.
       16     1     5     0     0     0  5.9371633410e+01 -4.4507612710e+01 -1.0343023234e+02  1.2729387811e+02  0.0000000000e+00 0. 9.
        3     1     7     0   104     0 -6.4254067676e+01  6.0696389968e+00 -1.5552573924e+02  1.6838625626e+02  5.0000000000e-01 0. 9.
       -4     1     7     0     0   104 -3.0695881254e+01  7.6100347457e+01 -2.8834505565e+02  2.9979763362e+02  1.5000000000e+00 0. 9.
#pdf   21   21  8.810910e-03  1.166224e-01  2.016395e+02  8.939930e+00  6.573593e-01
</event>
<event>
    12  9999  1.000000e+00  1.790333e+02  7.877754e-03  1.071758e-01
       21    -1     0     0   101   102  0.0000000000e+00  0.0000000000e+00  4.2555490663e+02  4.2555490663e+02  0.0000000000e+00 0. 9.
       21    -1     0     0   103   101  0.0000000000e+00  0.0000000000e+00 -1.3490777418e+02  1.3490777418e+02  0.0000000000e+00 0. 9.
        6     2     1     2   103     0  1.8064296508e+01 -5.1167911095e+01 -4.0652218324e+01  1.8415876249e+02  1.7122316728e+02  5.888587e-14 9.
       -6     2     1     2     0   102 -1.8064296508e+01  5.1167911095e+01  3.3129935077e+02  3.7630391831e+02  1.7000266228e+02  2.064271e-13 9.
       24     2     3     0     0     0  8.6979644894e-01 -8.1772872665e+01 -7.2887982606e+01  1.3625783344e+02  8.1030734393e+01  3.031233e-13 9.
        5     1     3     0   103     0  1.7194500059e+01  3.0604961571e+01  3.2235764282e+01  4.7900929050e+01  4.8000000000e+00 0. 9.
      -24     2     4     0     0     0 -5.9602127049e+01  4.9072398711e+01  1.3069305355e+02  1.7137537218e+02  7.9550801868e+01  9.219894e-14 9.
       -5     1     4     0     0   102  4.1537830541e+01  2.0955123835e+00  2.0060629722e+02  2.0492854614e+02  4.8000000000e+00 0. 9.
       -3     1     5     0     0   104  3.9319054386e+01 -3.7227182231e+01 -4.7956832470e+01  7.2332281280e+01  5.0000000000e-01 0. 9.
        4     1     5     0   104     0 -3.8449257937e+01 -4.4545690434e+01 -2.4931150136e+01  6.3925552162e+01  1.5000000000e+00 0. 9.
        1     1     7     0   105     0 -1.9209464064e+00  3.0565031414e+01  9.7714628690e+01  1.0240199578e+02  3.3000000000e-01 0. 9.
       -2     1     7     0     0   105 -5.7681180643e+01  1.8507367297e+01  3.2978424861e+01  6.8973376392e+01  3.3000000000e-01 0. 9.
#pdf   21   21  6.546999e-02  2.075504e-02  1.784527e+02  1.412912e+00  4.476120e+00
</event>
<event>
    12  9999  1.000000e+00  2.013315e+02  7.888331e-03  1.056501e-01
       21    -1     0     0   101   102  0.0000000000e+00  0.0000000000e+00  2.5047623392e+02  2.5047623392e+02  0.0000000000e+00 0. 9.
       21    -1     0     0   102   103  0.0000000000e+00  0.0000000000e+00 -4.3071096532e+02  4.3071096532e+02  0.0000000000e+00 0. 9.
        6     2     1     2   101     0 -8.1997491152e+01 -6.3469598889e+01  1.7912475897e+02  2.6887079285e+02  1.7162122664e+02  7.414500e-14 9.
       -6     2     1     2     0   103  8.1997491152e+01  6.3469598889e+01 -3.5935949037e+02  4.1231640638e+02  1.7353269755e+02  3.296348e-14 9.
       24     2     3     0     0     0  1.3611199077e+01 -8.8708858381e+00  3.8285730421e+01  9.0039271368e+01  7.9858098391e+01  1.637008e-13 9.
        5     1     3     0   101     0 -9.5608690229e+01 -5.4598713050e+01  1.4083902855e+02  1.7883152148e+02  4.8000000000e+00 0. 9.
      -24     2     4     0     0     0  4.9601922670e+00 -2.0942530754e+01 -1.2792912849e+02  1.5416295309e+02  8.3289621727e+01  4.846195e-14 9.
       -5     1     4     0     0   103  7.7037298885e+01  8.4412129642e+01 -2.3143036188e+02  2.5815345329e+02  4.8000000000e+00 0. 9.
       -3     1     5     0     0   104 -1.2477746317e+01  9.7082817844e+00 -1.8797712286e+01  2.4567231743e+01  5.0000000000e-01 0. 9.
        4     1     5     0   104     0  2.6088945394e+01 -1.8579167622e+01  5.7083442707e+01  6.5472039624e+01  1.5000000000e+00 0. 9.
       15     1     7     0     0     0 -1.0758902088e+01 -2.4213606341e+01 -1.3429185511e+02  1.3689233779e+02  1.7768200000e+00  7.548592e-02 9.
      -16     1     7     0     0     0  1.5719094355e+01  3.2710755877e+00  6.3627266218e+00  1.7270615302e+01  0.0000000000e+00 0. 9.
#pdf   21   21  3.853481e-02  6.626323e-02  2.005139e+02  2.497510e+00  1.380553e+00
</event>
<event>
    12  9999  1.000000e+00  2.074762e+02  7.891045e-03  1.052663e-01
       21    -1     0     0   101   102  0.0000000000e+00  0.0000000000e+00  7.7431909956e+02  7.7431909956e+02  0.0000000000e+00 0. 9.
       21    -1     0     0   102   103  0.0000000000e+00  0.0000000000e+00 -5.8254407434e+01  5.8254407434e+01  0.0000000000e+00 0. 9.
        6     2     1     2   101     0  8.6562163677e+01  7.9502079454e+01  4.4634562168e+02  4.9203922572e+02  1.7048342101e+02  4.563944e-14 9.
       -6     2     1     2     0   103 -8.6562163677e+01 -7.9502079454e+01  2.6971907045e+02  3.4053428127e+02  1.7146903785e+02  4.142734e-14 9.
       24     2     3     0     0     0  7.1814651025e+01  1.1752935606e+02  2.8241284215e+02  3.2304053017e+02  7.5017845092e+01  1.833395e-13 9.
        5     1     3     0   101     0  1.4747512651e+01 -3.8027276604e+01  1.6393277952e+02  1.6899869555e+02  4.8000000000e+00 0. 9.
      -24     2     4     0     0     0 -4.9771716152e+01  1.9144391864e+01  8.6712096447e+01  1.2934892225e+02  7.9802409416e+01  5.901187e-14 9.
       -5     1     4     0     0   103 -3.6790447525e+01 -9.8646471318e+01  1.8300697400e+02  2.1118535902e+02  4.8000000000e+00 0. 9.
       -3     1     5     0     0   104  3.5443781181e+01  3.2680461980e+01  3.6816097657e+01  6.0662585391e+01  5.0000000000e-01 0. 9.
        4     1     5     0   104     0  3.6370869845e+01  8.4848894078e+01  2.4559674450e+02  2.6237794478e+02  1.5000000000e+00 0. 9.
       13     1     7     0     0     0 -5.1266427214e+01  3.8151796935e+01  8.9611341592e+01  1.1006366283e+02  1.0566000000e-01  8.340974e+04 9.
      -14     1     7     0     0     0  1.4947110623e+00 -1.9007405071e+01 -2.8992451448e+00  1.9285259425e+01  0.0000000000e+00 0. 9.
#pdf   21   21  1.191260e-01  8.962217e-03  2.070705e+02  6.351933e-01  8.829109e+00
</event>
<event>
    12  9999  1.000000e+00  2.055616e+02  7.890208e-03  1.053844e-01
       21    -1     0     0   101   102  0.0000000000e+00  0.0000000000e+00  5.3420966754e+02  5.3420966754e+02  0.0000000000e+00 0. 9.
       21    -1     0     0   103   101  0.0000000000e+00  0.0000000000e+00 -1.4504522342e+02  1.4504522342e+02  0.0000000000e+00 0. 9.
        6     2     1     2   103     0 -1.1217374645e+02  7.3943742887e-01 -3.4178379099e+01  2.0884956037e+02  1.7281921510e+02  2.062648e-13 9.
       -6     2     1     2     0   102  1.1217374645e+02 -7.3943742887e-01  4.2334282322e+02  4.7040533060e+02  1.7169313593e+02  1.915387e-14 9.
       24     2     3     0     0     0 -1.1513650580e+02 -5.4131177090e+01 -1.5024410565e+01  1.5045883515e+02  7.8902020647e+01  1.200106e-13 9.
        5     1     3     0   103     0  2.9627593469e+00  5.4870614519e+01 -1.9153968533e+01  5.8390725215e+01  4.8000000000e+00 0. 9.
      -24     2     4     0     0     0  3.6552501471e+01  4.3737296184e+01  2.2082555991e+02  2.4964973166e+02  1.0154813720e+02  2.455218e-14 9.
       -5     1     4     0     0   102  7.5621244979e+01 -4.4476733613e+01  2.0251726331e+02  2.2075559894e+02  4.8000000000e+00 0. 9.
       -1     1     5     0     0   104 -3.3266063054e+01  2.1916158788e+00 -3.5817562016e+01  4.8933023410e+01  3.3000000000e-01 0. 9.
        2     1     5     0   104     0 -8.1870442742e+01 -5.6322792969e+01  2.0793151450e+01  1.0152581174e+02  3.3000000000e-01 0. 9.
        1     1     7     0   105     0 -1.7171474294e+01 -2.1225974866e+01  2.7543048275e+01  3.8783114196e+01  3.3000000000e-01 0. 9.
       -2     1     7     0     0   105  5.3723975766e+01  6.4963271050e+01  1.9328251164e+02  2.1086661747e+02  3.3000000000e-01 0. 9.
#pdf   21   21  8.218610e-02  2.231465e-02  2.050903e+02  1.057297e+00  4.187417e+00
</event>
<event>
    12  9999  1.000000e+00  1.736348e+02  7.875000e-03  1.075811e-01
       21    -1     0     0   101   102  0.0000000000e+00  0.0000000000e+00  6.3644649139e+02  6.3644649139e+02  0.0000000000e+00 0. 9.
       21    -1     0     0   103   101  0.0000000000e+00  0.0000000000e+00 -5.3093254299e+01  5.3093254299e+01  0.0000000000e+00 0. 9.
        6     2     1     2   103     0  2.7388979400e+01  1.7166612487e+00  1.7607871039e+02  2.4614799191e+02  1.6979993684e+02  2.829148e-13 9.
       -6     2     1     2     0   102 -2.7388979400e+01 -1.7166612487e+00  4.0727452670e+02  4.4339175378e+02  1.7312020130e+02  1.384514e-13 9.
       24     2     3     0     0     0  5.5725865177e+01  4.6155010350e+01  1.5344972384e+02  1.8859056842e+02  8.2364602363e+01  1.133578e-13 9.
        5     1     3     0   103     0 -2.8336885777e+01 -4.4438349101e+01  2.2628986552e+01  5.7557423490e+01  4.8000000000e+00 0. 9.
      -24     2     4     0     0     0 -3.1291785739e+00 -4.2990168889e+01  1.3207109932e+02  1.6401386128e+02  8.7176975394e+01  1.047849e-13 9.
       -5     1     4     0     0   102 -2.4259800826e+01  4.1273507640e+01  2.7520342739e+02  2.7937789249e+02  4.8000000000e+00 0. 9.
       -1     1     5     0     0   104  1.1256366993e+01 -1.4384739149e+01  8.5073802889e+01  8.7013144733e+01  3.3000000000e-01 0. 9.
        2     1     5     0   104     0  4.4469498185e+01  6.0539749499e+01  6.8375920950e+01  1.0157742369e+02  3.3000000000e-01 0. 9.
       13     1     7     0     0     0 -3.1882098501e+01  5.3709930283e+00  1.8449698483e+01  3.7225237529e+01  1.0566000000e-01  9.834421e+04 9.
      -14     1     7     0     0     0  2.8752919927e+01 -4.8361161917e+01  1.1362140083e+02  1.2678862375e+02  0.0000000000e+00 0. 9.
#pdf   21   21  9.791484e-02  8.168193e-03  1.720033e+02  8.546202e-01  9.428351e+00
</event>
<event>
    12  9999  1.000000e+00  1.755451e+02  7.875984e-03  1.074359e-01
       -2    -1     0     0     0   101  0.0000000000e+00  0.0000000000e+00  1.9154539007e+01  1.9154539007e+01  0.0000000000e+00 0. 9.
        2    -1     0     0   102     0  0.0000000000e+00  0.0000000000e+00 -1.6799529767e+03  1.6799529767e+03  0.0000000000e+00 0. 9.
       -6     2     1     2     0   101  4.6297262393e+00  3.9478687636e+01 -6.5519194665e+02  6.7827927670e+02  1.7089847602e+02  2.438782e-13 9.
        6     2     1     2   102     0 -4.6297262393e+00 -3.9478687636e+01 -1.0056064911e+03  1.0208282391e+03  1.7107272601e+02  8.140350e-14 9.
      -24     2     3     0     0     0  1.1036214254e+01 -5.1136708807e+01 -2.8806557881e+02  3.0005050582e+02  6.5664049015e+01  2.563732e-14 9.
       -5     1     3     0     0   101 -6.4064880142e+00  9.0615396443e+01 -3.6712636784e+02  3.7822877088e+02  4.8000000000e+00 0. 9.
       24     2     4     0     0     0 -5.3893256278e+01 -7.7206292184e+00 -7.9130848253e+02  7.9860729913e+02  9.2953819266e+01  8.795929e-14 9.
        5     1     4     0   102     0  4.9263530039e+01 -3.1758058417e+01 -2.1429800856e+02  2.2222093992e+02  4.8000000000e+00 0. 9.
        1     1     5     0   103     0 -2.6493419142e+01 -3.0077912417e+01 -1.6013057634e+02  1.6507117389e+02  3.3000000000e-01 0. 9.
       -2     1     5     0     0   103  3.7529633395e+01 -2.1058796391e+01 -1.2793500247e+02  1.3497933192e+02  3.3000000000e-01 0. 9.
       -1     1     7     0     0   104 -5.5944742594e+01 -4.2188703111e+01 -6.1251363332e+02  6.1650852451e+02  3.3000000000e-01 0. 9.
        2     1     7     0   104     0  2.0514863154e+00  3.4468073893e+01 -1.7879484921e+02  1.8209877462e+02  3.3000000000e-01 0. 9.
#pdf   -2    2  2.946852e-03  2.584543e-01  1.754602e+02  9.799068e-01  3.679619e-01
</event>
<event>
    12  9999  1.000000e+00  2.253038e+02  7.898495e-03  1.042286e-01
       21    -1     0     0   101   102  0.0000000000e+00  0.0000000000e+00  3.2733231932e+02  3.2733231932e+02  0.0000000000e+00 0. 9.
       21    -1     0     0   103   101  0.0000000000e+00  0.0000000000e+00 -1.8940520280e+02  1.8940520280e+02  0.0000000000e+00 0. 9.
        6     2     1     2   103     0 -1.0673722004e+02 -1.0013677880e+02 -4.0986587018e+01  2.2917209566e+02  1.7152183681e+02  1.307941e-13 9.
       -6     2     1     2     0   102  1.0673722004e+02  1.0013677880e+02  1.7891370354e+02  2.8756542647e+02  1.7106593049e+02  1.509025e-13 9.
       24     2     3     0     0     0  6.1528227195e+00 -3.9949184406e+01 -4.8028735140e+01  1.0095610553e+02  7.9066941786e+01  1.082100e-13 9.
        5     1     3     0   103     0 -1.1289004276e+02 -6.0187594393e+01  7.0421481215e+00  1.2821599012e+02  4.8000000000e+00 0. 9.
      -24     2     4     0     0     0  9.9327038607e+01  3.9088386639e+01  7.1510064808e+01  1.6370906374e+02  1.0145543659e+02  3.644277e-14 9.
       -5     1     4     0     0   102  7.4101814317e+00  6.1048392161e+01  1.0740363873e+02  1.2385636272e+02  4.8000000000e+00 0. 9.
       -3     1     5     0     0   104  3.4208521280e+01 -3.3926216425e+01 -3.9558318154e+00  4.8343662401e+01  5.0000000000e-01 0. 9.
        4     1     5     0   104     0 -2.8055698560e+01 -6.0229679819e+00 -4.4072903324e+01  5.2612443133e+01  1.5000000000e+00 0. 9.
        3     1     7     0   105     0  5.8953394836e+00 -2.8843166480e+01  2.6858196421e+01  3.9853431411e+01  5.0000000000e-01 0. 9.
       -4     1     7     0     0   105  9.3431699123e+01  6.7931553119e+01  4.4651868387e+01  1.2385563233e+02  1.5000000000e+00 0. 9.
#pdf   21   21  5.035882e-02  2.913926e-02  2.251305e+02  1.871563e+00  3.267022e+00
</event>
<event>
    12  9999  1.000000e+00  2.171217e+02  7.895150e-03  1.046917e-01
       21    -1     0     0   101   102  0.0000000000e+00  0.0000000000e+00  2.2904287751e+02  2.2904287751e+02  0.0000000000e+00 0. 9.
       21    -1     0     0   103   101  0.0000000000e+00  0.0000000000e+00 -2.6861088759e+02  2.6861088759e+02  0.0000000000e+00 0. 9.
        6     2     1     2   103     0  6.7884753062e+01 -1.1138561611e+02 -1.3993036221e+02  2.5665943385e+02  1.7110950745e+02  1.031553e-13 9.
       -6     2     1     2     0   102 -6.7884753062e+01  1.1138561611e+02  1.0036235213e+02  2.4099433125e+02  1.7604138944e+02  1.715746e-14 9.
       24     2     3     0     0     0  5.0722696741e+01  4.6549871583e+00 -4.3542740843e+01  1.0475956111e+02  8.0524123678e+01  9.804951e-14 9.
        5     1     3     0   103     0  1.7162056321e+01 -1.1604060327e+02 -9.6387621364e+01  1.5189987274e+02  4.8000000000e+00 0. 9.
      -24     2     4     0     0     0  2.8505276010e+01  2.4088838395e+01  2.4739593028e+01  9.0483179512e+01  7.8627828508e+01  2.942808e-13 9.
       -5     1     4     0     0   102 -9.6390029071e+01  8.7296777717e+01  7.5622759100e+01  1.5051115174e+02  4.8000000000e+00 0. 9.
       -3     1     5     0     0   104 -1.7796663629e+01  7.3379103134e+00 -2.8735567320e+01  3.4591169297e+01  5.0000000000e-01 0. 9.
        4     1     5     0   104     0  6.8519360370e+01 -2.6829231551e+00 -1.4807173523e+01  7.0168391815e+01  1.5000000000e+00 0. 9.
        3     1     7     0   105     0 -1.3803836976e+00  4.6297479814e+01  2.6149603670e+01  5.3192235038e+01  5.0000000000e-01 0. 9.
       -4     1     7     0     0   105  2.9885659707e+01 -2.2208641418e+01 -1.4100106427e+00  3.7290944474e+01  1.5000000000e+00 0. 9.
#pdf   21   21  3.523737e-02  4.132475e-02  2.151594e+02  2.722145e+00  2.316443e+00
</event>
<event>
    12  9999  1.000000e+00  2.201522e+02  7.896403e-03  1.045177e-01
       21    -1     0     0   101   102  0.0000000000e+00  0.0000000000e+00  3.9449775412e+02  3.9449775412e+02  0.0000000000e+00 0. 9.
       21    -1     0     0   102   103  0.0000000000e+00  0.0000000000e+00 -1.2813589379e+02  1.2813589379e+02  0.0000000000e+00 0. 9.
        6     2     1     2   101     0  6.6980320302e+01 -1.2311663973e+02  1.8626344168e+02  2.8843590642e+02  1.6987387121e+02  1.122440e-13 9.
       -6     2     1     2     0   103 -6.6980320302e+01  1.2311663973e+02  8.0098418645e+01  2.3419774149e+02  1.6967249383e+02  2.349243e-14 9.
       24     2     3     0     0     0  5.9798265943e+01 -3.2944924228e+01  1.6377315996e+02  1.9510117037e+02  8.1127172479e+01  1.818615e-13 9.
        5     1     3     0   101     0  7.1820543599e+00 -9.0171715502e+01  2.2490281719e+01  9.3334736048e+01  4.8000000000e+00 0. 9.
      -24     2     4     0     0     0 -2.7052726580e+01  1.4901475775e+02  6.9565537041e+01  1.8521910479e+02  8.0805351264e+01  1.895662e-14 9.
       -5     1     4     0     0   103 -3.9927593722e+01 -2.5898118024e+01  1.0532881604e+01  4.8978636695e+01  4.8000000000e+00 0. 9.
       -1     1     5     0     0   104  1.0174971403e+01 -4.9600231932e+01  5.7365775922e+01  7.6515712098e+01  3.3000000000e-01 0. 9.
        2     1     5     0   104     0  4.9623294540e+01  1.6655307704e+01  1.0640738404e+02  1.1858545827e+02  3.3000000000e-01 0. 9.
        3     1     7     0   105     0  6.8478028970e+00  7.7848492769e+01 -2.8000422945e+00  7.8200834189e+01  5.0000000000e-01 0. 9.
       -4     1     7     0     0   105 -3.3900529477e+01  7.1166264984e+01  7.2365579336e+01  1.0701827060e+02  1.5000000000e+00 0. 9.
#pdf   21   21  6.069196e-02  1.971321e-02  2.200746e+02  1.519250e+00  4.662826e+00
</event>
<event>
    12  9999  1.000000e+00  1.692633e+02  7.872708e-03  1.079361e-01
       21    -1     0     0   101   102  0.0000000000e+00  0.0000000000e+00  9.8907230254e+02  9.8907230254e+02  0.0000000000e+00 0. 9.
       21    -1     0     0   102   103  0.0000000000e+00  0.0000000000e+00 -1.2838525300e+02  1.2838525300e+02  0.0000000000e+00 0. 9.
        6     2     1     2   101     0  3.3754075251e+01 -2.0984014496e+01  9.1813559262e+02  9.3248253678e+02  1.5802230381e+02  6.043999e-14 9.
       -6     2     1     2     0   103 -3.3754075251e+01  2.0984014496e+01 -5.7448543084e+01  1.8497501876e+02  1.7127684024e+02  5.160383e-13 9.
       24     2     3     0     0     0  4.4637839884e+01 -6.7220225712e+01  6.9608024207e+02  7.0535292121e+02  8.0522944350e+01  6.481171e-14 9.
        5     1     3     0   101     0 -1.0883764633e+01  4.6236211217e+01  2.2205535055e+02  2.2712961557e+02  4.8000000000e+00 0. 9.
      -24     2     4     0     0     0 -3.9874191291e+01 -3.9026498648e+01 -7.7603064248e+01  1.2119443997e+02  7.4517366906e+01  1.774738e-14 9.
       -5     1     4     0     0   103  6.1201160406e+00  6.0010513144e+01  2.0154521164e+01  6.3780578795e+01  4.8000000000e+00 0. 9.
       -3     1     5     0     0   104 -7.0217670939e+00 -4.1527131233e+01  4.7497831374e+02  4.7684217134e+02  5.0000000000e-01 0. 9.
        4     1     5     0   104     0  5.1659606978e+01 -2.5693094480e+01  2.2110192832e+02  2.2851074987e+02  1.5000000000e+00 0. 9.
        3     1     7     0   105     0 -7.7626161528e+00 -5.1307736032e+01 -6.7861794109e+01  8.5429591395e+01  5.0000000000e-01 0. 9.
       -4     1     7     0     0   105 -3.2111575139e+01  1.2281237384e+01 -9.7412701392e+00  3.5764848573e+01  1.5000000000e+00 0. 9.
#pdf   21   21  1.521650e-01  1.975158e-02  1.629439e+02  4.482750e-01  4.677523e+00
</event>
<event>
    12  9999  1.000000e+00  1.858314e+02  7.881109e-03  1.066866e-01
       -1    -1     0     0     0   101  0.0000000000e+00  0.0000000000e+00  2.1559304623e+02  2.1559304623e+02  0.0000000000e+00 0. 9.
        1    -1     0     0   102     0  0.0000000000e+00  0.0000000000e+00 -2.8698659920e+02  2.8698659920e+02  0.0000000000e+00 0. 9.
       -6     2     1     2     0   101 -4.8816549534e+01 -5.2796426282e+01  1.3120508708e+02  2.2848193197e+02  1.7268092027e+02  5.401274e-13 9.
        6     2     1     2   102     0  4.8816549534e+01  5.2796426282e+01 -2.0259864006e+02  2.7409771346e+02  1.7003772945e+02  1.136482e-13 9.
      -24     2     3     0     0     0 -9.7571484582e+01 -5.4813341414e+01  8.2721720129e+01  1.5952695746e+02  7.7982499161e+01  1.455707e-13 9.
       -5     1     3     0     0   101  4.8754935048e+01  2.0169151323e+00  4.8483366955e+01  6.8954974509e+01  4.8000000000e+00 0. 9.
       24     2     4     0     0     0  5.6158780894e+01  3.1554437964e+01 -2.2152138713e+02  2.4432791692e+02  8.0466855313e+01  5.288610e-14 9.
        5     1     4     0   102     0 -7.3422313602e+00  2.1241988318e+01  1.8922747077e+01  2.9769796539e+01  4.8000000000e+00 0. 9.
        3     1     5     0   103     0 -7.1307357683e+01 -5.8664690148e+01  2.4518950635e+01  9.5539070909e+01  5.0000000000e-01 0. 9.
       -4     1     5     0     0   103 -2.6264126899e+01  3.8513487331e+00  5.8202769493e+01  6.3987886553e+01  1.5000000000e+00 0. 9.
       -3     1     7     0     0   104  4.2922645373e+01 -1.1365338782e+01 -4.9343362973e+01  6.6381788774e+01  5.0000000000e-01 0. 9.
        4     1     7     0   104     0  1.3236135522e+01  4.2919776746e+01 -1.7217802416e+02  1.7794612815e+02  1.5000000000e+00 0. 9.
#pdf   -1    1  3.316816e-02  4.415178e-02  1.846168e+02  2.610302e-01  4.470646e-01
</event>
<event>
    12  9999  1.000000e+00  1.725523e+02  7.874438e-03  1.076643e-01
       21    -1     0     0   101   102  0.0000000000e+00  0.0000000000e+00  5.8902024438e+01  5.8902024438e+01  0.0000000000e+00 0. 9.
       21    -1     0     0   102   103  0.0000000000e+00  0.0000000000e+00 -5.0926101301e+02  5.0926101301e+02  0.0000000000e+00 0. 9.
        6     2     1     2   101     0  8.9490271294e+00 -1.0321421972e+01 -2.0081390205e+02  2.6480803393e+02  1.7207688613e+02  2.803335e-14 9.
       -6     2     1     2     0   103 -8.9490271294e+00  1.0321421972e+01 -2.4954508652e+02  3.0335500351e+02  1.7194444194e+02  1.780660e-13 9.
       24     2     3     0     0     0  6.7789357795e+01 -7.6388628756e-01 -1.6356265259e+02  1.9435076612e+02  8.0146730544e+01  2.355025e-13 9.
        5     1     3     0   101     0 -5.8840330666e+01 -9.5575356841e+00 -3.7251249468e+01  7.0457267816e+01  4.8000000000e+00 0. 9.
      -24     2     4     0     0     0 -5.2917979600e+01  7.5420848027e+00 -7.1067480855e+01  1.1945750701e+02  7.9764111846e+01  7.893542e-15 9.
       -5     1     4     0     0   103  4.3968952470e+01  2.7793371689e+00 -1.7847760566e+02  1.8389749650e+02  4.8000000000e+00 0. 9.
       -1     1     5     0     0   104  1.0937518004e+01 -3.2341400056e+01 -8.9481445252e+01  9.5773865966e+01  3.3000000000e-01 0. 9.
        2     1     5     0   104     0  5.6851839791e+01  3.1577513768e+01 -7.4081207333e+01  9.8576900151e+01  3.3000000000e-01 0. 9.
        1     1     7     0   105     0 -1.7027471335e+01 -3.5762680420e+01 -3.2590401914e+01  5.1294710134e+01  3.3000000000e-01 0. 9.
       -4     1     7     0     0   105 -3.5890508264e+01  4.3304765223e+01 -3.8477078942e+01  6.8162796879e+01  1.5000000000e+00 0. 9.
#pdf   21   21  9.061850e-03  7.834785e-02  1.724863e+02  8.727901e+00  1.140321e+00
</event>
<event>
    12  9999  1.000000e+00  1.962145e+02  7.886009e-03  1.059809e-01
       21    -1     0     0   101   102  0.0000000000e+00  0.0000000000e+00  4.8975278165e+02  4.8975278165e+02  0.0000000000e+00 0. 9.
       21    -1     0     0   102   103  0.0000000000e+00  0.0000000000e+00 -9.0027432682e+01  9.0027432682e+01  0.0000000000e+00 0. 9.
        6     2     1     2   101     0  8.4396576576e+01  4.5228133595e+01  3.0336383358e+02  3.6145575398e+02  1.7161666690e+02  3.546892e-14 9.
       -6     2     1     2     0   103 -8.4396576576e+01 -4.5228133595e+01  9.6361515388e+01  2.1832446035e+02  1.7091419523e+02  1.016415e-13 9.
       24     2     3     0     0     0 -1.1092612417e+01  1.3290438393e+01  6.8617379396e+01  1.0598141214e+02  7.8892541858e+01  1.093627e-14 9.
        5     1     3     0   101     0  9.5489188993e+01  3.1937695202e+01  2.3474645418e+02  2.5547434184e+02  4.8000000000e+00 0. 9.
      -24     2     4     0     0     0 -6.5516075304e+01 -3.2440713979e+01 -1.0198655804e+01  1.0924604125e+02  8.0535264957e+01  2.577761e-13 9.
       -5     1     4     0     0   103 -1.8880501273e+01 -1.2787419617e+01  1.0656017119e+02  1.0907841910e+02  4.8000000000e+00 0. 9.
       -3     1     5     0     0   104  2.0534983979e+01 -1.2437088579e+01  5.9520361341e+01  6.4181696406e+01  5.0000000000e-01 0. 9.
        4     1     5     0   104     0 -3.1627596395e+01  2.5727526972e+01  9.0970180546e+00  4.1799715733e+01  1.5000000000e+00 0. 9.
        1     1     7     0   105     0  1.2425298578e+00  2.0797013365e+01  7.2866786341e+00  2.2074062401e+01  3.3000000000e-01 0. 9.
       -4     1     7     0     0   105 -6.6758605162e+01 -5.3237727344e+01 -1.7485334438e+01  8.7171978848e+01  1.5000000000e+00 0. 9.
#pdf   21   21  7.534658e-02  1.385037e-02  1.959082e+02  1.184014e+00  6.279416e+00
</event>
<event>
    12  9999  1.000000e+00  1.787562e+02  7.877615e-03  1.071962e-01
       21    -1     0     0   101   102  0.0000000000e+00  0.0000000000e+00  8.1660413023e+01  8.1660413023e+01  0.0000000000e+00 0. 9.
       21    -1     0     0   102   103  0.0000000000e+00  0.0000000000e+00 -5.0563194672e+02  5.0563194672e+02  0.0000000000e+00 0. 9.
        6     2     1     2   101     0  2.4384133667e+01  4.6134845640e+01 -7.2633267972e+01  1.9323224308e+02  1.7128951571e+02  3.013898e-15 9.
       -6     2     1     2     0   103 -2.4384133667e+01 -4.6134845640e+01 -3.5133826573e+02  3.9406011667e+02  1.7065107273e+02  6.880963e-14 9.
       24     2     3     0     0     0  6.4599734241e+01  7.3015261871e+01 -3.1723636377e+01  1.2969887182e+02  7.9442143201e+01  2.734491e-14 9.
        5     1     3     0   101     0 -4.0215600574e+01 -2.6880416232e+01 -4.0909631596e+01  6.3533371260e+01  4.8000000000e+00 0. 9.
      -24     2     4     0     0     0  4.1149054334e+01 -4.1702660545e+01 -2.1777928420e+02  2.4514643516e+02  9.6107239444e+01  4.115411e-14 9.
       -5     1     4     0     0   103 -6.5533188001e+01 -4.4321850947e+00 -1.3355898153e+02  1.4891368151e+02  4.8000000000e+00 0. 9.
       -3     1     5     0     0   104  1.4935683811e+01  1.5358049144e+01 -4.7372961937e+01  5.1994152047e+01  5.0000000000e-01 0. 9.
        4     1     5     0   104     0  4.9664050430e+01  5.7657212727e+01  1.5649325560e+01  7.7704719774e+01  1.5000000000e+00 0. 9.
        1     1     7     0   105     0 -2.2763148571e+01 -2.1546948782e+00 -1.1489471110e+01  2.5591414367e+01  3.3000000000e-01 0. 9.
       -2     1     7     0     0   105  6.3912202905e+01 -3.9547965667e+01 -2.0628981309e+02  2.1955502079e+02  3.3000000000e-01 0. 9.
#pdf   21   21  1.256314e-02  7.778953e-02  1.784511e+02  6.788458e+00  1.147203e+00
</event>
<event>
    12  9999  1.000000e+00  1.953167e+02  7.885595e-03  1.060401e-01
       21    -1     0     0   101   102  0.0000000000e+00  0.0000000000e+00  8.0218671682e+01  8.0218671682e+01  0.0000000000e+00 0. 9.
       21    -1     0     0   102   103  0.0000000000e+00  0.0000000000e+00 -4.7630695845e+02  4.7630695845e+02  0.0000000000e+00 0. 9.
        6     2     1     2   101     0  6.3890724946e+01 -6.8779445330e+01 -1.8764471991e+02  2.7127888365e+02  1.7195654967e+02  3.046645e-13 9.
       -6     2     1     2     0   103 -6.3890724946e+01  6.8779445330e+01 -2.0844356686e+02  2.8524674648e+02  1.7059996769e+02  6.700729e-14 9.
       24     2     3     0     0     0 -3.1196203878e+01 -2.9245515793e+01 -1.0534188006e+02  1.3936507443e+02  8.0605266235e+01  1.246200e-13 9.
        5     1     3     0   101     0  9.5086928824e+01 -3.9533929537e+01 -8.2302839841e+01  1.3191380922e+02  4.8000000000e+00 0. 9.
      -24     2     4     0     0     0 -1.0624311905e+02  3.0129125542e+01 -1.7167981383e+02  2.1696654406e+02  7.3519781091e+01  5.641822e-14 9.
       -5     1     4     0     0   103  4.2352394101e+01  3.8650319787e+01 -3.6763753029e+01  6.8280202421e+01  4.8000000000e+00 0. 9.
       -3     1     5     0     0   104 -2.9537302208e+00 -5.3479074756e+01 -6.8754395350e+01  8.7155911096e+01  5.0000000000e-01 0. 9.
        4     1     5     0   104     0 -2.8242473657e+01  2.4233558963e+01 -3.6587484714e+01  5.2209163334e+01  1.5000000000e+00 0. 9.
        1     1     7     0   105     0 -7.1341151910e+00  3.1317958607e+01 -2.9255802836e+01  4.3447911692e+01  3.3000000000e-01 0. 9.
       -2     1     7     0     0   105 -9.9109003856e+01 -1.1888330646e+00 -1.4242401099e+02  1.7351863236e+02  3.3000000000e-01 0. 9.
#pdf   21   21  1.234133e-02  7.327799e-02  1.947228e+02  6.887829e+00  1.225884e+00
</event>
<event>
    12  9999  1.000000e+00  2.879343e+02  7.920745e-03  1.012597e-01
       21    -1     0     0   101   102  0.0000000000e+00  0.0000000000e+00  5.6345463385e+02  5.6345463385e+02  0.0000000000e+00 0. 9.
       21    -1     0     0   102   103  0.0000000000e+00  0.0000000000e+00 -2.8979091172e+02  2.8979091172e+02  0.0000000000e+00 0. 9.
        6     2     1     2   101     0  6.9425237753e+01 -2.2137563600e+02  4.3627478885e+02  5.2300066404e+02  1.7136792976e+02  1.599766e-13 9.
       -6     2     1     2     0   103 -6.9425237753e+01  2.2137563600e+02 -1.6261106672e+02  3.3024488153e+02  1.6968290105e+02  1.055318e-14 9.
       24     2     3     0     0     0  6.3478557227e+01 -2.2217239851e+02  4.4710929047e+02  5.0971818440e+02  8.0720554950e+01  7.884559e-14 9.
        5     1     3     0   101     0  5.9466805261e+00  7.9676251783e-01 -1.0834501627e+01  1.3282479637e+01  4.8000000000e+00 0. 9.
      -24     2     4     0     0     0 -4.4372283619e+01  3.6874618746e+01 -6.7614106900e+01  1.2116179218e+02  8.2339998613e+01  4.277041e-14 9.
       -5     1     4     0     0   103 -2.5052954134e+01  1.8450101725e+02 -9.4996959823e+01  2.0908308935e+02  4.8000000000e+00 0. 9.
      -15     1     5     0     0     0 -5.8336375643e-01 -9.9629573789e+01  2.4830253784e+02  2.6755130288e+02  1.7768200000e+00  1.737803e-01 9.
       16     1     5     0     0     0  6.4061920984e+01 -1.2254282472e+02  1.9880675263e+02  2.4216688152e+02  0.0000000000e+00 0. 9.
        3     1     7     0   104     0 -4.5001848607e+01 -1.5118040786e+01 -2.3506910406e+01  5.2976847510e+01  5.0000000000e-01 0. 9.
       -2     1     7     0     0   104  6.2956498842e-01  5.1992659532e+01 -4.4107196494e+01  6.8184944672e+01  3.3000000000e-01 0. 9.
#pdf   21   21  8.668533e-02  4.458322e-02  2.874358e+02  9.557878e-01  2.103556e+00
</event>
<event>
    12  9999  1.000000e+00  1.941874e+02  7.885073e-03  1.061150e-01
       21    -1     0     0   101   102  0.0000000000e+00  0.0000000000e+00  6.6115489595e+01  6.6115489595e+01  0.0000000000e+00 0. 9.
       21    -1     0     0   103   101  0.0000000000e+00  0.0000000000e+00 -1.0845763838e+03  1.0845763838e+03  0.0000000000e+00 0. 9.
        6     2     1     2   103     0  1.6896299409e+01  9.1307381012e+01 -9.0614971321e+02  9.2683842349e+02  1.7117136949e+02  7.699696e-14 9.
       -6     2     1     2     0   102 -1.6896299409e+01 -9.1307381012e+01 -1.1231118097e+02  2.2385344989e+02  1.6992363842e+02  3.016054e-13 9.
       24     2     3     0     0     0  1.7219647136e+01  5.8294302203e+01 -8.7621538941e+02  8.8227070346e+02  8.3387311033e+01  6.063291e-15 9.
        3     1     3     0   103     0 -3.2334772757e-01  3.3013078809e+01 -2.9934323807e+01  4.4567720023e+01  5.0000000000e-01 0. 9.
      -24     2     4     0     0     0 -3.2395329619e+01  1.0223825140e+01 -3.5942168315e+01  9.5775068204e+01  8.2018535983e+01  7.727791e-14 9.
       -5     1     4     0     0   102  1.5499030211e+01 -1.0153120615e+02 -7.6369012654e+01  1.2807838168e+02  4.8000000000e+00 0. 9.
       -3     1     5     0     0   104  1.6910438565e-01 -1.5009524616e+01 -3.8760020908e+02  3.8789107556e+02  5.0000000000e-01 0. 9.
        4     1     5     0   104     0  1.7050542750e+01  7.3303826819e+01 -4.8861518033e+02  4.9437962790e+02  1.5000000000e+00 0. 9.
       11     1     7     0     0     0 -1.5660598341e+00 -2.3094002898e+01  1.4969439877e+01  2.7565733144e+01  5.1100000000e-04 0. 9.
      -12     1     7     0     0     0 -3.0829269785e+01  3.3317828038e+01 -5.0911608192e+01  6.8209335060e+01  0.0000000000e+00 0. 9.
#pdf   21   21  1.017161e-02  1.668579e-01  1.936403e+02  8.009956e+00  3.745054e-01
</event>
<event>
    12  9999  1.000000e+00  2.117054e+02  7.892867e-03  1.050104e-01
       21    -1     0     0   101   102  0.0000000000e+00  0.0000000000e+00  7.6786565327e+01  7.6786565327e+01  0.0000000000e+00 0. 9.
       21    -1     0     0   102   103  0.0000000000e+00  0.0000000000e+00 -5.8456767457e+02  5.8456767457e+02  0.0000000000e+00 0. 9.
        6     2     1     2   101     0 -1.2097209670e+02  2.8457300984e+01 -2.4075581385e+02  3.2043632707e+02  1.7109065329e+02  2.793689e-14 9.
       -6     2     1     2     0   103  1.2097209670e+02 -2.8457300984e+01 -2.6702529539e+02  3.4091791283e+02  1.7169289079e+02  1.309784e-14 9.
       24     2     3     0     0     0 -1.2615547667e+01 -4.6790804498e+00 -5.0858825537e+01  9.9250731555e+01  8.4160808826e+01  7.179294e-14 9.
        5     1     3     0   101     0 -1.0835654904e+02  3.3136381434e+01 -1.8989698831e+02  2.2118559552e+02  4.8000000000e+00 0. 9.
      -24     2     4     0     0     0  5.0661667425e+01  4.5090677199e+01 -1.2236000613e+02  1.6398869682e+02  8.5560200254e+01  1.190110e-13 9.
       -5     1     4     0     0   103  7.0310429278e+01 -7.3547978183e+01 -1.4466528927e+02  1.7692921601e+02  4.8000000000e+00 0. 9.
      -15     1     5     0     0     0  3.1912642520e+01 -5.9414970601e+00 -1.1886777259e+00  3.2531341564e+01  1.7768200000e+00  9.158497e-03 9.
       16     1     5     0     0     0 -4.4528190187e+01  1.2624166103e+00 -4.9670147811e+01  6.6719389990e+01  0.0000000000e+00 0. 9.
       11     1     7     0     0     0 -4.9265846251e+00  4.2607839649e+01 -1.9658959574e+01  4.7182347625e+01  5.1100000000e-04 0. 9.
      -12     1     7     0     0     0  5.5588252050e+01  2.4828375500e+00 -1.0270104655e+02  1.1680634919e+02  0.0000000000e+00 0. 9.
#pdf   21   21  1.181332e-02  8.993349e-02  2.114618e+02  7.131707e+00  9.378626e-01
</event>
<event>
    12  9999  1.000000e+00  1.894041e+02  7.882825e-03  1.064383e-01
       21    -1     0     0   101   102  0.0000000000e+00  0.0000000000e+00  2.6179972247e+02  2.6179972247e+02  0.0000000000e+00 0. 9.
       21    -1     0     0   103   101  0.0000000000e+00  0.0000000000e+00 -1.4823456568e+02  1.4823456568e+02  0.0000000000e+00 0. 9.
        6     2     1     2   103     0 -8.2003256712e+01  1.5625991097e+01  1.1350345409e+02  2.2195615424e+02  1.7150158776e+02  3.411933e-13 9.
       -6     2     1     2     0   102  8.2003256712e+01 -1.5625991097e+01  6.1702704935e-02  1.8807813392e+02  1.6853686523e+02  1.095697e-13 9.
       24     2     3     0     0     0 -5.8489229177e+01 -1.0620341546e+01  1.4419094677e+02  1.7498231391e+02  7.9334730522e+01  1.319507e-14 9.
        5     1     3     0   103     0 -2.3514027534e+01  2.6246332643e+01 -3.0687492676e+01  4.6973840325e+01  4.8000000000e+00 0. 9.
      -24     2     4     0     0     0  1.0773252234e+02  1.2197499639e+01 -1.7787927248e+01  1.4591427456e+02  9.6018174309e+01  3.782052e-14 9.
       -5     1     4     0     0   102 -2.5729265625e+01 -2.7823490737e+01  1.7849629953e+01  4.2163859357e+01  4.8000000000e+00 0. 9.
      -11     1     5     0     0     0 -6.4852848093e+00  3.1523614678e+01  4.5416679894e+01  5.5663920220e+01  5.1100000000e-04 0. 9.
       12     1     5     0     0     0 -5.2003944368e+01 -4.2143956224e+01  9.8774266876e+01  1.1931839369e+02  0.0000000000e+00 0. 9.
        3     1     7     0   104     0  8.8213800435e+01  3.2939384935e+01 -4.6866954911e+01  1.0518288421e+02  5.0000000000e-01 0. 9.
       -4     1     7     0     0   104  1.9518721902e+01 -2.0741885296e+01  2.9079027663e+01  4.0731390353e+01  1.5000000000e+00 0. 9.
#pdf   21   21  4.027688e-02  2.280532e-02  1.880781e+02  2.395474e+00  4.115644e+00
</event>
<event>
    12  9999  1.000000e+00  2.041694e+02  7.889594e-03  1.054711e-01
       21    -1     0     0   101   102  0.0000000000e+00  0.0000000000e+00  1.9826859292e+02  1.9826859292e+02  0.0000000000e+00 0. 9.
       21    -1     0     0   103   101  0.0000000000e+00  0.0000000000e+00 -2.1967537753e+02  2.1967537753e+02  0.0000000000e+00 0. 9.
        6     2     1     2   103     0 -8.0478309619e+01 -7.6080757655e+01 -5.3990022005e+01  2.1102681142e+02  1.7132528319e+02  8.256599e-14 9.
       -6     2     1     2     0   102  8.0478309619e+01  7.6080757655e+01  3.2583237388e+01  2.0691715903e+02  1.7172071319e+02  3.573857e-14 9.
       24     2     3     0     0     0 -8.1998432783e+01 -2.4469123650e+01 -9.0072418190e+01  1.4785204705e+02  8.0154265687e+01  6.862776e-14 9.
        5     1     3     0   103     0  1.5201231643e+00 -5.1611634004e+01  3.6082396185e+01  6.3174764372e+01  4.8000000000e+00 0. 9.
      -24     2     4     0     0     0  1.0438057086e+02  1.3433327656e+01  3.7850085471e-01  1.3237721247e+02  8.0298351494e+01  2.097437e-13 9.
       -5     1     4     0     0   102 -2.3902261244e+01  6.2647429998e+01  3.2204736534e+01  7.4539946560e+01  4.8000000000e+00 0. 9.
       -3     1     5     0     0   104 -3.2872435894e+01  2.9400742909e+01 -3.8392882316e+01  5.8474474240e+01  5.0000000000e-01 0. 9.
        4     1     5     0   104     0 -4.9125996889e+01 -5.3869866559e+01 -5.1679535874e+01  8.9377572812e+01  1.5000000000e+00 0. 9.
       15     1     7     0     0     0  6.3428568242e+01 -3.1702260745e+01 -5.5248378708e+00  7.1147013489e+01  1.7768200000e+00  7.880088e-04 9.
      -16     1     7     0     0     0  4.0952002621e+01  4.5135588402e+01  5.9033387255e+00  6.1230198980e+01  0.0000000000e+00 0. 9.
#pdf   21   21  3.050286e-02  3.379621e-02  2.040034e+02  3.139900e+00  2.843466e+00
</event>
<event>
    12  9999  1.000000e+00  1.811044e+02  7.878790e-03  1.070243e-01
       21    -1     0     0   101   102  0.0000000000e+00  0.0000000000e+00  1.0106882618e+02  1.0106882618e+02  0.0000000000e+00 0. 9.
       21    -1     0     0   102   103  0.0000000000e+00  0.0000000000e+00 -3.2579464835e+02  3.2579464835e+02  0.0000000000e+00 0. 9.
        6     2     1     2   101     0  5.8126098956e+01 -1.9026899765e+01 -9.8329960717e+01  2.0500183917e+02  1.6916354984e+02  8.020693e-14 9.
       -6     2     1     2     0   103 -5.8126098956e+01  1.9026899765e+01 -1.2639586146e+02  2.2186163535e+02  1.7177312116e+02  3.294814e-13 9.
       24     2     3     0     0     0 -4.5041223088e+00  3.7661295387e+01 -7.9573119551e+01  1.1833607214e+02  7.8948618264e+01  1.866573e-15 9.
        5     1     3     0   101     0  6.2630221265e+01 -5.6688195152e+01 -1.8756841166e+01  8.6665767036e+01  4.8000000000e+00 0. 9.
      -24     2     4     0     0     0 -9.1029997407e+00 -3.6116362549e+01 -1.5544203516e+01  8.8613094259e+01  7.8888541393e+01  1.294687e-14 9.
       -5     1     4     0     0   103 -4.9023099215e+01  5.5143262314e+01 -1.1085165794e+02  1.3324854110e+02  4.8000000000e+00 0. 9.
       -3     1     5     0     0   104  1.7959072513e+01  5.0317599103e+01 -7.5035103781e+01  9.2113548756e+01  5.0000000000e-01 0. 9.
        4     1     5     0   104     0 -2.2463194822e+01 -1.2656303716e+01 -4.5380157700e+00  2.6222523381e+01  1.5000000000e+00 0. 9.
        3     1     7     0   105     0 -2.5368441428e+01 -3.2627954213e+01  2.2502734604e+01  4.7061282189e+01  5.0000000000e-01 0. 9.
       -4     1     7     0     0   105  1.6265441687e+01 -3.4884083363e+00 -3.8046938120e+01  4.1551812070e+01  1.5000000000e+00 0. 9.
#pdf   21   21  1.554905e-02  5.012225e-02  1.798804e+02  5.714660e+00  1.908198e+00
</event>
<event>
    12  9999  1.000000e+00  1.721328e+02  7.874219e-03  1.076967e-01
       21    -1     0     0   101   102  0.0000000000e+00  0.0000000000e+00  3.9744410785e+02  3.9744410785e+02  0.0000000000e+00 0. 9.
       21    -1     0     0   103   101  0.0000000000e+00  0.0000000000e+00 -9.4466079386e+01  9.4466079386e+01  0.0000000000e+00 0. 9.
        6     2     1     2   103     0  6.6698217641e+00 -3.2885992021e+01  2.6436190724e+02  3.1541745334e+02  1.6874530181e+02  5.266449e-14 9.
       -6     2     1     2     0   102 -6.6698217641e+00  3.2885992021e+01  3.8616121232e+01  1.7649273390e+02  1.6891567513e+02  4.463519e-14 9.
       24     2     3     0     0     0 -4.9702377517e+01 -3.7034605639e+01  2.0663953387e+02  2.3448570288e+02  9.1879048482e+01  6.730521e-14 9.
        5     1     3     0   103     0  5.6372199281e+01  4.1486136177e+00  5.7722373367e+01  8.0931750468e+01  4.8000000000e+00 0. 9.
      -24     2     4     0     0     0 -7.2259620534e+00  8.0468817284e+01  5.4789906353e+01  1.2600445925e+02  7.9672735793e+01  2.506523e-13 9.
       -5     1     4     0     0   102  5.5614028929e-01 -4.7582825263e+01 -1.6173785121e+01  5.0488274651e+01  4.8000000000e+00 0. 9.
       -1     1     5     0     0   104 -5.5699436523e+01  4.3792727078e+00  1.6972080467e+02  1.7868090467e+02  3.3000000000e-01 0. 9.
        2     1     5     0   104     0  5.9970590067e+00 -4.1413878347e+01  3.6918729203e+01  5.5804798202e+01  3.3000000000e-01 0. 9.
        3     1     7     0   105     0  2.8821920893e+01  6.9977020911e+01  4.0216398623e+01  8.5703531419e+01  5.0000000000e-01 0. 9.
       -4     1     7     0     0   105 -3.6047882947e+01  1.0491796374e+01  1.4573507730e+01  4.0300927826e+01  1.5000000000e+00 0. 9.
#pdf   21   21  6.114525e-02  1.453324e-02  1.720493e+02  1.533613e+00  6.039275e+00
</event>
<event>
    12  9999  1.000000e+00  2.515224e+02  7.908465e-03  1.028746e-01
       21    -1     0     0   101   102  0.0000000000e+00  0.0000000000e+00  3.2680442251e+02  3.2680442251e+02  0.0000000000e+00 0. 9.
       21    -1     0     0   102   103  0.0000000000e+00  0.0000000000e+00 -2.3078602337e+02  2.3078602337e+02  0.0000000000e+00 0. 9.
        6     2     1     2   101     0 -1.5697563396e+02 -9.6745495679e+01  1.5991885301e+02  2.9791146150e+02  1.7081030050e+02  7.305863e-14 9.
       -6     2     1     2     0   103  1.5697563396e+02  9.6745495679e+01 -6.3900453862e+01  2.5967898438e+02  1.7131510830e+02  3.680411e-13 9.
       24     2     3     0     0     0 -5.8896134845e+01 -8.1244949641e+01  1.5282044067e+02  1.9824560711e+02  7.6666401443e+01  3.898591e-13 9.
        5     1     3     0   101     0 -9.8079499113e+01 -1.5500546038e+01  7.0984123376e+00  9.9665854391e+01  4.8000000000e+00 0. 9.
      -24     2     4     0     0     0  1.7545095180e+02  1.1554318559e+02 -5.8595781598e+01  2.3236836258e+02  8.0176842566e+01  1.554811e-14 9.
       -5     1     4     0     0   103 -1.8475317840e+01 -1.8797689906e+01 -5.3046722636e+00  2.7310621797e+01  4.8000000000e+00 0. 9.
       -1     1     5     0     0   104 -1.3707413305e+01 -9.4366029923e+00 -6.3978473975e+00  1.7832106069e+01  3.3000000000e-01 0. 9.
        2     1     5     0   104     0 -4.5188721540e+01 -7.1808346649e+01  1.5921828807e+02  1.8041350104e+02  3.3000000000e-01 0. 9.
       13     1     7     0     0     0 -6.3235974066e+00 -2.2913287478e+00  2.6822896612e+00  7.2418169994e+00  1.0566000000e-01  7.942405e+05 9.
      -14     1     7     0     0     0  1.8177454921e+02  1.1783451433e+02 -6.1278071259e+01  2.2512654558e+02  0.0000000000e+00 0. 9.
#pdf   21   21  5.027760e-02  3.550554e-02  2.513507e+02  1.861492e+00  2.681681e+00
</event>
<event>
    12  9999  1.000000e+00  1.713327e+02  7.873800e-03  1.077588e-01
       21    -1     0     0   101   102  0.0000000000e+00  0.0000000000e+00  3.6461744515e+02  3.6461744515e+02  0.0000000000e+00 0. 9.
       21    -1     0     0   102   103  0.0000000000e+00  0.0000000000e+00 -8.7828908312e+01  8.7828908312e+01  0.0000000000e+00 0. 9.
        6     2     1     2   101     0 -1.1155606004e+01 -1.2592313943e+01  2.0349787527e+02  2.6584122644e+02  1.7022678555e+02  1.283309e-13 9.
       -6     2     1     2     0   103  1.1155606004e+01  1.2592313943e+01  7.3290661573e+01  1.8660512703e+02  1.7078330845e+02  4.359346e-14 9.
       24     2     3     0     0     0  5.0743009601e+01 -5.0303211858e+00  1.6691167790e+02  1.9338287850e+02  8.3290289482e+01  7.056437e-14 9.
        5     1     3     0   101     0 -6.1898615605e+01 -7.5619927574e+00  3.6586197370e+01  7.2458347940e+01  4.8000000000e+00 0. 9.
      -24     2     4     0     0     0  3.3097650496e+01  4.3277016892e+01 -6.9921946424e+00  9.7771679985e+01  8.0882976959e+01  1.653003e-14 9.
       -5     1     4     0     0   103 -2.1942044492e+01 -3.0684702949e+01  8.0282856215e+01  8.8833447043e+01  4.8000000000e+00 0. 9.
       -1     1     5     0     0   104  4.0717606713e+01 -4.0512876001e+01  1.2496238900e+02  1.3753153887e+02  3.3000000000e-01 0. 9.
        2     1     5     0   104     0  1.0025402887e+01  3.5482554815e+01  4.1949288895e+01  5.5851339627e+01  3.3000000000e-01 0. 9.
        1     1     7     0   105     0  4.8351664344e+01 -1.3015968960e+00  6.3905172875e+00  4.8790626257e+01  3.3000000000e-01 0. 9.
       -2     1     7     0     0   105 -1.5254013848e+01  4.4578613788e+01 -1.3382711930e+01  4.8981053728e+01  3.3000000000e-01 0. 9.
#pdf   21   21  5.609499e-02  1.351214e-02  1.710561e+02  1.691454e+00  6.404406e+00
</event>
<event>
    12  9999  1.000000e+00  2.191624e+02  7.895995e-03  1.045742e-01
       21    -1     0     0   101   102  0.0000000000e+00  0.0000000000e+00  2.8741555723e+02  2.8741555723e+02  0.0000000000e+00 0. 9.
       21    -1     0     0   103   101  0.0000000000e+00  0.0000000000e+00 -1.6889762144e+02  1.6889762144e+02  0.0000000000e+00 0. 9.
        6     2     1     2   103     0 -1.1125202549e+01 -1.3542115937e+02  3.5803249643e+01  2.2194737296e+02  1.7180251203e+02  6.979632e-14 9.
       -6     2     1     2     0   102  1.1125202549e+01  1.3542115937e+02  8.2714686149e+01  2.3436580571e+02  1.7211319254e+02  1.051149e-13 9.
       24     2     3     0     0     0  2.9077115838e+01 -6.3618969172e+01  7.5973255843e+01  1.3024977038e+02  7.9373894798e+01  8.484095e-17 9.
        5     1     3     0   103     0 -4.0202318387e+01 -7.1802190202e+01 -4.0170006201e+01  9.1697602584e+01  4.8000000000e+00 0. 9.
      -24     2     4     0     0     0  5.5290148477e+01  2.5196031904e+01  1.7305622210e+01  9.8713651953e+01  7.5848928664e+01  1.558558e-13 9.
       -5     1     4     0     0   102 -4.4164945928e+01  1.1022512747e+02  6.5409063939e+01  1.3565215376e+02  4.8000000000e+00 0. 9.
       -1     1     5     0     0   104  5.5141345907e+01 -5.1814008332e+01  4.4798293736e+01  8.7933244621e+01  3.3000000000e-01 0. 9.
        2     1     5     0   104     0 -2.6064230069e+01 -1.1804960839e+01  3.1174962108e+01  4.2316525754e+01  3.3000000000e-01 0. 9.
        3     1     7     0   105     0 -1.2617314716e+01  1.1396704675e+01  2.3628562401e+01  2.9114265734e+01  5.0000000000e-01 0. 9.
       -4     1     7     0     0   105  6.7907463193e+01  1.3799327230e+01 -6.3229401914e+00  6.9599386218e+01  1.5000000000e+00 0. 9.
#pdf   21   21  4.421778e-02  2.598425e-02  2.190406e+02  2.156086e+00  3.640680e+00
</event>
<event>
    12  9999  1.000000e+00  2.353169e+02  7.902430e-03  1.036895e-01
       21    -1     0     0   101   102  0.0000000000e+00  0.0000000000e+00  3.4736762160e+02  3.4736762160e+02  0.0000000000e+00 0. 9.
       21    -1     0     0   103   101  0.0000000000e+00  0.0000000000e+00 -1.6005234069e+02  1.6005234069e+02  0.0000000000e+00 0. 9.
        6     2     1     2   103     0 -1.4964571292e+02  5.8058358549e+01  7.7494584697e+01  2.4751161072e+02  1.7173227534e+02  1.572791e-14 9.
       -6     2     1     2     0   102  1.4964571292e+02 -5.8058358549e+01  1.0982069621e+02  2.5990835158e+02  1.7241564173e+02  1.376109e-13 9.
       24     2     3     0     0     0 -1.6478611251e+02  8.5665394591e+01  7.3859741741e+01  2.1545490748e+02  8.0452054052e+01  1.582054e-13 9.
        5     1     3     0   103     0  1.5140399599e+01 -2.7607036042e+01  3.6348429555e+00  3.2056703236e+01  4.8000000000e+00 0. 9.
      -24     2     4     0     0     0  5.9441088436e+01 -9.3707782469e+01  4.8778660442e+01  1.4520470807e+02  7.9941591435e+01  1.139257e-13 9.
       -5     1     4     0     0   102  9.0204624479e+01  3.5649423920e+01  6.1042035771e+01  1.1470364351e+02  4.8000000000e+00 0. 9.
       -3     1     5     0     0   104 -8.8383056381e+01  7.6060296083e+01  7.4634257188e+01  1.3844585816e+02  5.0000000000e-01 0. 9.
        2     1     5     0   104     0 -7.6403056134e+01  9.6050985083e+00 -7.7451544656e-01  7.7009049326e+01  3.3000000000e-01 0. 9.
        1     1     7     0   105     0 -1.9841258710e+01 -1.4653061709e+01  1.1337637462e+01  2.7148456454e+01  3.3000000000e-01 0. 9.
       -2     1     7     0     0   105  7.9282347146e+01 -7.9054720760e+01  3.7441022980e+01  1.1805625161e+02  3.3000000000e-01 0. 9.
#pdf   21   21  5.344117e-02  2.462344e-02  2.350672e+02  1.747459e+00  3.816422e+00
</event>
<event>
    12  9999  1.000000e+00  2.702223e+02  7.914974e-03  1.020116e-01
       21    -1     0     0   101   102  0.0000000000e+00  0.0000000000e+00  1.3060791792e+02  1.3060791792e+02  0.0000000000e+00 0. 9.
       21    -1     0     0   102   103  0.0000000000e+00  0.0000000000e+00 -5.6703562025e+02  5.6703562025e+02  0.0000000000e+00 0. 9.
        6     2     1     2   101     0 -1.0935640073e+02  1.7813171490e+02 -2.5999544518e+02  3.7541422706e+02  1.7218734023e+02  3.647249e-13 9.
       -6     2     1     2     0   103  1.0935640073e+02 -1.7813171490e+02 -1.7643225715e+02  3.2222931111e+02  1.7033395827e+02  3.970764e-14 9.
       24     2     3     0     0     0 -7.5649324757e+01  1.1769267121e+02 -2.6027144636e+02  3.0604448474e+02  7.9671925173e+01  6.918616e-14 9.
        5     1     3     0   101     0 -3.3707075968e+01  6.0439043693e+01  2.7600117775e-01  6.9369742320e+01  4.8000000000e+00 0. 9.
      -24     2     4     0     0     0  4.8168851625e+01 -1.4610250669e+02 -1.8330170792e+02  2.5265908977e+02  8.1061203952e+01  1.630229e-13 9.
       -5     1     4     0     0   103  6.1187549100e+01 -3.2029208209e+01  6.8694507715e+00  6.9570221340e+01  4.8000000000e+00 0. 9.
       -3     1     5     0     0   104 -4.7065647393e+01  5.0260361032e+01 -5.5109373430e+01  8.8196213611e+01  5.0000000000e-01 0. 9.
        4     1     5     0   104     0 -2.8583677364e+01  6.7432310177e+01 -2.0516207293e+02  2.1784827113e+02  1.5000000000e+00 0. 9.
        3     1     7     0   105     0  4.6744024478e+01 -3.7429786264e+01 -3.6975058904e+01  7.0380378694e+01  5.0000000000e-01 0. 9.
       -4     1     7     0     0   105  1.4248271475e+00 -1.0867272043e+02 -1.4632664902e+02  1.8227871107e+02  1.5000000000e+00 0. 9.
#pdf   21   21  2.009353e-02  8.723625e-02  2.696357e+02  4.565238e+00  9.535705e-01
</event>
<event>
    12  9999  1.000000e+00  1.642796e+02  7.870023e-03  1.083819e-01
       21    -1     0     0   101   102  0.0000000000e+00  0.0000000000e+00  1.8816687196e+01  1.8816687196e+01  0.0000000000e+00 0. 9.
       21    -1     0     0   102   103  0.0000000000e+00  0.0000000000e+00 -1.4910281344e+03  1.4910281344e+03  0.0000000000e+00 0. 9.
        6     2     1     2   101     0 -2.0775492683e+01 -3.6731681692e+01 -6.4600255596e+02  6.6949357665e+02  1.7065025443e+02  5.794694e-14 9.
       -6     2     1     2     0   103  2.0775492683e+01  3.6731681692e+01 -8.2620889122e+02  8.4035124492e+02  1.4760841902e+02  1.854698e-13 9.
       24     2     3     0     0     0  3.7061664870e+01  8.1190857442e+00 -4.7789251186e+02  4.8607941400e+02  8.0327188859e+01  9.953720e-14 9.
        5     1     3     0   101     0 -5.7837157553e+01 -4.4850767437e+01 -1.6811004410e+02  1.8341416265e+02  4.8000000000e+00 0. 9.
      -24     2     4     0     0     0  2.5071657023e+01 -2.8033425764e+01 -4.0706579644e+02  4.1618506277e+02  7.8057561449e+01  2.665344e-14 9.
       -5     1     4     0     0   103 -4.2961643390e+00  6.4765107456e+01 -4.1914309479e+02  4.2416618215e+02  4.8000000000e+00 0. 9.
       -3     1     5     0     0   104  4.9553136047e+01 -1.5296932257e+01 -1.8964152600e+02  1.9660536058e+02  5.0000000000e-01 0. 9.
        4     1     5     0   104     0 -1.2491471177e+01  2.3416018001e+01 -2.8825098586e+02  2.8947405342e+02  1.5000000000e+00 0. 9.
        1     1     7     0   105     0  4.4036469910e+01 -2.9456956824e+01 -3.7631925747e+02  3.8003054539e+02  3.3000000000e-01 0. 9.
       -2     1     7     0     0   105 -1.8964812887e+01  1.4235310607e+00 -3.0746538964e+01  3.6154517377e+01  3.3000000000e-01 0. 9.
#pdf   21   21  2.894875e-03  2.293889e-01  1.535223e+02  1.913895e+01  2.114489e-01
</event>
<event>
    12  9999  1.000000e+00  2.603964e+02  7.911611e-03  1.024555e-01
       21    -1     0     0   101   102  0.0000000000e+00  0.0000000000e+00  4.0228954914e+02  4.0228954914e+02  0.0000000000e+00 0. 9.
       21    -1     0     0   102   103  0.0000000000e+00  0.0000000000e+00 -2.6313420250e+02  2.6313420250e+02  0.0000000000e+00 0. 9.
        6     2     1     2   101     0  1.0356619510e+02  1.6638830181e+02  2.6906014024e+02  3.7446575853e+02  1.7152323894e+02  4.127942e-14 9.
       -6     2     1     2     0   103 -1.0356619510e+02 -1.6638830181e+02 -1.2990479360e+02  2.9095799311e+02  1.7137757907e+02  3.154809e-13 9.
       24     2     3     0     0     0  1.1484842436e+02  1.4546975499e+02  1.4123715800e+02  2.4436337928e+02  7.3579318682e+01  9.782229e-14 9.
        5     1     3     0   101     0 -1.1282229259e+01  2.0918546820e+01  1.2782298224e+02  1.3010237925e+02  4.8000000000e+00 0. 9.
      -24     2     4     0     0     0 -7.9317589830e+01 -1.7288477285e+02 -1.5409263865e+02  2.5576863618e+02  7.4112274443e+01  1.645786e-14 9.
       -5     1     4     0     0   103 -2.4248605270e+01  6.4964710466e+00  2.4187845048e+01  3.5189356938e+01  4.8000000000e+00 0. 9.
       -3     1     5     0     0   104  9.9846436253e+01  7.3907544659e+01  1.0543563644e+02  1.6293728677e+02  5.0000000000e-01 0. 9.
        4     1     5     0   104     0  1.5001988107e+01  7.1562210329e+01  3.5801521562e+01  8.1426092504e+01  1.5000000000e+00 0. 9.
        1     1     7     0   105     0 -4.5843512151e+01 -1.2591237339e+02 -6.3310735877e+01  1.4820226569e+02  3.3000000000e-01 0. 9.
       -4     1     7     0     0   105 -3.3474077679e+01 -4.6972399469e+01 -9.0781902775e+01  1.0756637049e+02  1.5000000000e+00 0. 9.
#pdf   21   21  6.189070e-02  4.048219e-02  2.603484e+02  1.466253e+00  2.341919e+00
</event>
<event>
    12  9999  1.000000e+00  2.290548e+02  7.899988e-03  1.040232e-01
       21    -1     0     0   101   102  0.0000000000e+00  0.0000000000e+00  1.0180444131e+02  1.0180444131e+02  0.0000000000e+00 0. 9.
       21    -1     0     0   102   103  0.0000000000e+00  0.0000000000e+00 -6.1672788305e+02  6.1672788305e+02  0.0000000000e+00 0. 9.
        6     2     1     2   101     0  2.5764443495e+01 -1.3396893376e+02 -1.0312731841e+02  2.4219812023e+02  1.7150278096e+02  1.741919e-15 9.
       -6     2     1     2     0   103 -2.5764443495e+01  1.3396893376e+02 -4.1179612333e+02  4.7633420414e+02  1.9674029856e+02  4.622628e-14 9.
       24     2     3     0     0     0  5.5809574207e+01 -8.9695065520e+01 -1.1839577477e+02  1.8634965518e+02  9.7717558040e+01  2.059761e-13 9.
        5     1     3     0   101     0 -3.0045130712e+01 -4.4273868243e+01  1.5268456363e+01  5.5848465050e+01  4.8000000000e+00 0. 9.
      -24     2     4     0     0     0 -9.4228848064e+01  8.2480409163e+01 -2.1127338507e+02  2.5822677322e+02  7.9765465388e+01  2.041752e-13 9.
       -5     1     4     0     0   103  6.8464404570e+01  5.1488524600e+01 -2.0052273827e+02  2.1810743092e+02  4.8000000000e+00 0. 9.
       -3     1     5     0     0   104  2.1779902255e+01 -7.5189103861e-01  1.1993189013e+01  2.4880033462e+01  5.0000000000e-01 0. 9.
        4     1     5     0   104     0  3.4029671952e+01 -8.8943174482e+01 -1.3038896378e+02  1.6146962172e+02  1.5000000000e+00 0. 9.
        1     1     7     0   105     0 -4.9404215821e+01  4.2800860562e+01 -1.7824989668e+02  1.8985738008e+02  3.3000000000e-01 0. 9.
       -2     1     7     0     0   105 -4.4824632244e+01  3.9679548601e+01 -3.3023488385e+01  6.8369393138e+01  3.3000000000e-01 0. 9.
#pdf   21   21  1.566222e-02  9.488121e-02  2.191454e+02  5.671801e+00  8.700239e-01
</event>
<event>
    12  9999  1.000000e+00  2.175301e+02  7.895320e-03  1.046681e-01
       21    -1     0     0   101   102  0.0000000000e+00  0.0000000000e+00  6.1177116396e+01  6.1177116396e+01  0.0000000000e+00 0. 9.
       21    -1     0     0   102   103  0.0000000000e+00  0.0000000000e+00 -7.8638129761e+02  7.8638129761e+02  0.0000000000e+00 0. 9.
        6     2     1     2   101     0 -3.8424188519e+01  1.2986347662e+02 -3.0926392527e+02  3.7843149865e+02  1.7095403731e+02  7.417504e-14 9.
       -6     2     1     2     0   103  3.8424188519e+01 -1.2986347662e+02 -4.1594025594e+02  4.6912691536e+02  1.6950759681e+02  1.548577e-13 9.
       24     2     3     0     0     0 -7.1242123931e+01  8.0124596512e+01 -2.7337609458e+02  3.0870381784e+02  9.5226923062e+01  3.480368e-14 9.
        5     1     3     0   101     0  3.2817935412e+01  4.9738880105e+01 -3.5887830694e+01  6.9727680807e+01  4.8000000000e+00 0. 9.
      -24     2     4     0     0     0  3.2134556156e+01 -2.9168480069e+01 -2.9664064584e+02  3.1281159693e+02  8.9286015023e+01  1.107002e-13 9.
       -5     1     4     0     0   103  6.2896323634e+00 -1.0069499655e+02 -1.1929961010e+02  1.5631531843e+02  4.8000000000e+00 0. 9.
       -1     1     5     0     0   104  1.7555645924e+01  3.9224511525e+01 -1.1270659321e+02  1.2062192197e+02  3.3000000000e-01 0. 9.
        4     1     5     0   104     0 -8.8797769855e+01  4.0900084987e+01 -1.6066950137e+02  1.8808189587e+02  1.5000000000e+00 0. 9.
        3     1     7     0   105     0  5.2129575834e+01  1.3081755193e+00 -9.9638996574e+01  1.1246058704e+02  5.0000000000e-01 0. 9.
       -4     1     7     0     0   105 -1.9995019678e+01 -3.0476655588e+01 -1.9700164927e+02  2.0035100988e+02  1.5000000000e+00 0. 9.
#pdf   21   21  9.411864e-03  1.209817e-01  2.169649e+02  8.511097e+00  6.173456e-01
</event>
<event>
    12  9999  1.000000e+00  1.712470e+02  7.873755e-03  1.077655e-01
       21    -1     0     0   101   102  0.0000000000e+00  0.0000000000e+00  3.4959937628e+02  3.4959937628e+02  0.0000000000e+00 0. 9.
       21    -1     0     0   103   101  0.0000000000e+00  0.0000000000e+00 -4.2023007406e+02  4.2023007406e+02  0.0000000000e+00 0. 9.
        6     2     1     2   103     0 -4.3280513991e+00 -5.0713691810e+00 -3.7968871404e+02  4.1664073920e+02  1.7141042902e+02  2.254846e-13 9.
       -6     2     1     2     0   102  4.3280513991e+00  5.0713691810e+00  3.0905801626e+02  3.5318871114e+02  1.7082434676e+02  9.865919e-14 9.
       24     2     3     0     0     0  2.2870859005e+01 -1.8932944242e+01 -8.3233642354e+01  1.1857938055e+02  7.9067677992e+01  6.620838e-14 9.
        5     1     3     0   103     0 -2.7198910404e+01  1.3861575061e+01 -2.9645507169e+02  2.9806135865e+02  4.8000000000e+00 0. 9.
      -24     2     4     0     0     0 -9.6889068181e+00 -6.1062035592e+01  1.5623540624e+02  1.8601247934e+02  7.9804092631e+01  2.140225e-14 9.
       -5     1     4     0     0   102  1.4016958217e+01  6.6133404773e+01  1.5282261002e+02  1.6717623180e+02  4.8000000000e+00 0. 9.
       -1     1     5     0     0   104  3.8858932203e+01 -9.0560923612e+00 -9.0122763971e+01  9.8560899481e+01  3.3000000000e-01 0. 9.
        2     1     5     0   104     0 -1.5988073198e+01 -9.8768518805e+00  6.8891216176e+00  2.0018481069e+01  3.3000000000e-01 0. 9.
       15     1     7     0     0     0 -3.8062869251e+01 -6.1125342716e+01  1.0299245002e+02  1.2568091100e+02  1.7768200000e+00  1.282982e-01 9.
      -16     1     7     0     0     0  2.8373962433e+01  6.3307124551e-02  5.3242956216e+01  6.0331568341e+01  0.0000000000e+00 0. 9.
#pdf   21   21  5.378452e-02  6.465078e-02  1.709544e+02  1.772263e+00  1.438431e+00
</event>
<event>
    12  9999  1.000000e+00  1.739442e+02  7.875160e-03  1.075575e-01
       21    -1     0     0   101   102  0.0000000000e+00  0.0000000000e+00  2.7903597786e+02  2.7903597786e+02  0.0000000000e+00 0. 9.
       21    -1     0     0   102   103  0.0000000000e+00  0.0000000000e+00 -3.7230548724e+02  3.7230548724e+02  0.0000000000e+00 0. 9.
        6     2     1     2   101     0  1.9479161215e+01 -1.7720165080e+01  2.2752897476e+02  2.8648226001e+02  1.7207326630e+02  3.313297e-14 9.
       -6     2     1     2     0   103 -1.9479161215e+01  1.7720165080e+01 -3.2079848414e+02  3.6485920509e+02  1.7180550090e+02  1.062259e-13 9.
       24     2     3     0     0     0 -5.5576219655e+01 -1.1599893716e+01  1.1591919770e+02  1.5175828199e+02  7.9812543071e+01  1.019776e-13 9.
        5     1     3     0   101     0  7.5055380870e+01 -6.1202713635e+00  1.1160977706e+02  1.3472397803e+02  4.8000000000e+00 0. 9.
      -24     2     4     0     0     0  3.3682517369e+01  5.6496473827e+01 -2.3023358726e+02  2.5281097112e+02  8.1114233534e+01  1.257584e-13 9.
       -5     1     4     0     0   103 -5.3161678584e+01 -3.8776308747e+01 -9.0564896876e+01  1.1204823397e+02  4.8000000000e+00 0. 9.
       -3     1     5     0     0   104 -5.6619046887e+00  1.0366363066e+01 -9.3840855350e+00  1.5094028927e+01  5.0000000000e-01 0. 9.
        4     1     5     0   104     0 -4.9914314966e+01 -2.1966256782e+01  1.2530328323e+02  1.3666425306e+02  1.5000000000e+00 0. 9.
        3     1     7     0   105     0  4.2814727067e+00  3.2212471978e+01 -1.7955575214e+01  3.7129867233e+01  5.0000000000e-01 0. 9.
       -4     1     7     0     0   105  2.9401044662e+01  2.4284001849e+01 -2.1227801205e+02  2.1568110388e+02  1.5000000000e+00 0. 9.
#pdf   21   21  4.292861e-02  5.727777e-02  1.738119e+02  2.252382e+00  1.650674e+00
</event>
<event>
    12  9999  1.000000e+00  1.972500e+02  7.886484e-03  1.059131e-01
       -1    -1     0     0     0   101  0.0000000000e+00  0.0000000000e+00  1.7075566503e+02  1.7075566503e+02  0.0000000000e+00 0. 9.
        1    -1     0     0   102     0  0.0000000000e+00  0.0000000000e+00 -2.2854921324e+02  2.2854921324e+02  0.0000000000e+00 0. 9.
       -6     2     1     2     0   101 -6.7146739904e+01 -7.0465938581e+01 -1.7877739671e+01  1.9794096941e+02  1.7142602082e+02  8.186215e-15 9.
        6     2     1     2   102     0  6.7146739904e+01  7.0465938581e+01 -3.9915808536e+01  2.0136390885e+02  1.7169746311e+02  3.082847e-13 9.
      -24     2     3     0     0     0 -5.4872429945e+01 -2.2502248309e+00  4.1637882012e+01  1.0645768399e+02  8.1138635565e+01  1.918575e-13 9.
       -5     1     3     0     0   101 -1.2274309959e+01 -6.8215713750e+01 -5.9515621683e+01  9.1483285423e+01  4.8000000000e+00 0. 9.
       24     2     4     0     0     0  9.4555911922e+01  5.8092120035e+00 -1.2750816229e+01  1.2591371462e+02  8.1957994073e+01  1.723194e-13 9.
        5     1     4     0   102     0 -2.7409172018e+01  6.4656726577e+01 -2.7164992308e+01  7.5450194231e+01  4.8000000000e+00 0. 9.
       15     1     5     0     0     0  9.7644407995e+00 -2.5016143584e+01  1.3135576755e+00  2.6945023048e+01  1.7768200000e+00  6.062914e-02 9.
      -16     1     5     0     0     0 -6.4636870744e+01  2.2765918753e+01  4.0324324336e+01  7.9512660938e+01  0.0000000000e+00 0. 9.
      -15     1     7     0     0     0  2.2020895911e+01 -2.5693275189e+01 -2.9674927594e+01  4.5042454015e+01  1.7768200000e+00  1.905519e-01 9.
       16     1     7     0     0     0  7.2535016011e+01  3.1502487193e+01  1.6924111365e+01  8.0871260610e+01  0.0000000000e+00 0. 9.
#pdf   -1    1  2.627010e-02  3.516142e-02  1.971320e+02  3.069020e-01  4.732592e-01
</event>
<event>
    12  9999  1.000000e+00  1.813330e+02  7.878903e-03  1.070077e-01
       21    -1     0     0   101   102  0.0000000000e+00  0.0000000000e+00  1.9976519787e+02  1.9976519787e+02  0.0000000000e+00 0. 9.
       21    -1     0     0   103   101  0.0000000000e+00  0.0000000000e+00 -2.7621764499e+02  2.7621764499e+02  0.0000000000e+00 0. 9.
        6     2     1     2   103     0 -6.1870185871e+01  3.3246359548e+01 -1.8922705628e+02  2.6064284005e+02  1.6490776488e+02  2.491408e-13 9.
       -6     2     1     2     0   102  6.1870185871e+01 -3.3246359548e+01  1.1277460916e+02  2.1534000281e+02  1.6946965515e+02  1.087026e-13 9.
       24     2     3     0     0     0 -6.4729691432e+01  6.3029812850e+00 -3.2337096866e+01  1.0135812086e+02  7.0697385410e+01  1.337544e-13 9.
        5     1     3     0   103     0  2.8595055609e+00  2.6943378263e+01 -1.5688995941e+02  1.5928471920e+02  4.8000000000e+00 0. 9.
      -24     2     4     0     0     0  2.6811869134e+01  1.9218877337e+01  8.5841208055e-01  8.6771103688e+01  8.0251143240e+01  2.968280e-14 9.
       -5     1     4     0     0   102  3.5058316737e+01 -5.2465236885e+01  1.1191619708e+02  1.2856889913e+02  4.8000000000e+00 0. 9.
      -13     1     5     0     0     0 -6.8934489943e+01 -1.1265529224e+01 -4.1348960591e+01  8.1170337922e+01  1.0566000000e-01  1.243775e+06 9.
       14     1     5     0     0     0  4.2047985109e+00  1.7568510509e+01  9.0118637247e+00  2.0187782934e+01  0.0000000000e+00 0. 9.
        1     1     7     0   104     0 -6.6233356224e+00 -1.5032923756e+01 -2.6838785838e+01  3.1468821024e+01  3.3000000000e-01 0. 9.
       -2     1     7     0     0   104  3.3435204757e+01  3.4251801092e+01  2.7697197919e+01  5.5302282663e+01  3.3000000000e-01 0. 9.
#pdf   21   21  3.073311e-02  4.249502e-02  1.792423e+02  3.132497e+00  2.272605e+00
</event>
<event>
    12  9999  1.000000e+00  1.722241e+02  7.874267e-03  1.076897e-01
       21    -1     0     0   101   102  0.0000000000e+00  0.0000000000e+00  5.7600995264e+02  5.7600995264e+02  0.0000000000e+00 0. 9.
       21    -1     0     0   102   103  0.0000000000e+00  0.0000000000e+00 -1.5098928638e+02  1.5098928638e+02  0.0000000000e+00 0. 9.
        6     2     1     2   101     0  6.9320977426e+00  1.3501558645e+01 -8.2707220332e+01  1.9074711428e+02  1.7121224035e+02  9.382312e-14 9.
       -6     2     1     2     0   103 -6.9320977426e+00 -1.3501558645e+01  5.0772788660e+02  5.3625212474e+02  1.7189644673e+02  6.404223e-13 9.
       24     2     3     0     0     0  5.6209550187e+01 -3.1136524076e+01 -2.8833719093e+01  1.0503702220e+02  7.7925579957e+01  1.081583e-13 9.
        5     1     3     0   101     0 -4.9277452445e+01  4.4638082721e+01 -5.3873501239e+01  8.5710092079e+01  4.8000000000e+00 0. 9.
      -24     2     4     0     0     0 -1.1995900760e+01  5.6393210417e+01  3.4385230373e+02  3.5795695514e+02  8.1084395154e+01  1.555542e-13 9.
       -5     1     4     0     0   103  5.0638030169e+00 -6.9894769062e+01  1.6387558286e+02  1.7829516960e+02  4.8000000000e+00 0. 9.
       -3     1     5     0     0   104  2.0363286777e+01  1.6151652092e+01  1.6123214099e+01  3.0589987685e+01  5.0000000000e-01 0. 9.
        2     1     5     0   104     0  3.5846263410e+01 -4.7288176168e+01 -4.4956933192e+01  7.4447034513e+01  3.3000000000e-01 0. 9.
        3     1     7     0   105     0  2.7383571553e+01  3.5522114743e+01  9.3964529936e+01  1.0412138835e+02  5.0000000000e-01 0. 9.
       -4     1     7     0     0   105 -3.9379472312e+01  2.0871095674e+01  2.4988777380e+02  2.5383556679e+02  1.5000000000e+00 0. 9.
#pdf   21   21  8.861692e-02  2.322912e-02  1.718836e+02  9.753402e-01  4.056420e+00
</event>
<event>
    12  9999  1.000000e+00  2.115514e+02  7.892801e-03  1.050196e-01
       21    -1     0     0   101   102  0.0000000000e+00  0.0000000000e+00  6.8991366802e+02  6.8991366802e+02  0.0000000000e+00 0. 9.
       21    -1     0     0   103   101  0.0000000000e+00  0.0000000000e+00 -9.8076591788e+01  9.8076591788e+01  0.0000000000e+00 0. 9.
        6     2     1     2   103     0  1.0385717622e+02  6.0042352475e+01  5.2751339252e+02  5.6932059165e+02  1.7738139599e+02  8.063264e-14 9.
       -6     2     1     2     0   102 -1.0385717622e+02 -6.0042352475e+01  6.4323683716e+01  2.1866966816e+02  1.7113588269e+02  7.604742e-14 9.
       24     2     3     0     0     0  8.2739154341e+01 -2.1878604162e+01  2.0374734005e+02  2.3464984193e+02  7.8886809797e+01  8.906240e-15 9.
        5     1     3     0   103     0  2.1118021882e+01  8.1920956637e+01  3.2376605247e+02  3.3467074972e+02  4.8000000000e+00 0. 9.
      -24     2     4     0     0     0 -5.2549584246e+01 -9.0880472396e+01  2.9221912523e+00  1.3278228893e+02  8.1251941419e+01  2.410564e-13 9.
       -5     1     4     0     0   102 -5.1307591978e+01  3.0838119921e+01  6.1401492464e+01  8.5887379233e+01  4.8000000000e+00 0. 9.
      -15     1     5     0     0     0  7.9245779899e+01  7.1812508209e+00  1.8051118753e+02  1.9727876193e+02  1.7768200000e+00  5.769186e-02 9.
       16     1     5     0     0     0  3.4933744421e+00 -2.9059854983e+01  2.3236152517e+01  3.7371080001e+01  0.0000000000e+00 0. 9.
        3     1     7     0   104     0 -3.1427433640e+01 -4.3111748490e+00 -2.3890343207e+01  3.9714837433e+01  5.0000000000e-01 0. 9.
       -4     1     7     0     0   104 -2.1122150606e+01 -8.6569297547e+01  2.6812534459e+01  9.3067451497e+01  1.5000000000e+00 0. 9.
#pdf   21   21  1.061406e-01  1.508871e-02  2.089949e+02  7.492615e-01  5.852661e+00
</event>
<event>
    12  9999  1.000000e+00  1.958583e+02  7.885845e-03  1.060043e-01
       21    -1     0     0   101   102  0.0000000000e+00  0.0000000000e+00  2.0714010965e+02  2.0714010965e+02  0.0000000000e+00 0. 9.
       21    -1     0     0   102   103  0.0000000000e+00  0.0000000000e+00 -2.0162140080e+02  2.0162140080e+02  0.0000000000e+00 0. 9.
        6     2     1     2   101     0  9.5352940456e+01 -9.5691818470e+00  6.1080349199e+01  2.0749368404e+02  1.7360606949e+02  2.522072e-14 9.
       -6     2     1     2     0   103 -9.5352940456e+01  9.5691818470e+00 -5.5561640351e+01  2.0126782642e+02  1.6804133294e+02  3.931341e-14 9.
       24     2     3     0     0     0  1.0013563875e+02  3.2327122070e+01  4.0348923828e-01  1.3344710532e+02  8.2071786540e+01  1.559001e-13 9.
        5     1     3     0   101     0 -4.7826982942e+00 -4.1896303917e+01  6.0676859961e+01  7.4046578717e+01  4.8000000000e+00 0. 9.
      -24     2     4     0     0     0  4.4229804022e-01  1.0270330004e+01 -6.5672471607e+01  1.0481841877e+02  8.1045370502e+01  5.315162e-14 9.
       -5     1     4     0     0   103 -9.5795238497e+01 -7.0114815715e-01  1.0110831256e+01  9.6449407650e+01  4.8000000000e+00 0. 9.
      -13     1     5     0     0     0  3.7219373047e+01  5.2917840119e+01 -1.2782197613e+01  6.5946760896e+01  1.0566000000e-01  6.613206e+05 9.
       14     1     5     0     0     0  6.2916265703e+01 -2.0590718049e+01  1.3185686851e+01  6.7500344426e+01  0.0000000000e+00 0. 9.
        1     1     7     0   104     0  1.3905553051e+01  1.0756541524e+00  1.6176187405e+01  2.1361165148e+01  3.3000000000e-01 0. 9.
       -2     1     7     0     0   104 -1.3463255010e+01  9.1946758518e+00 -8.1848659013e+01  8.3457253619e+01  3.3000000000e-01 0. 9.
#pdf   21   21  3.186771e-02  3.101868e-02  1.934467e+02  3.017174e+00  3.096393e+00
</event>
<event>
    12  9999  1.000000e+00  1.802403e+02  7.878359e-03  1.070872e-01
       21    -1     0     0   101   102  0.0000000000e+00  0.0000000000e+00  1.0263415454e+03  1.0263415454e+03  0.0000000000e+00 0. 9.
       21    -1     0     0   103   101  0.0000000000e+00  0.0000000000e+00 -7.1471509295e+01  7.1471509295e+01  0.0000000000e+00 0. 9.
        6     2     1     2   103     0  4.3367636311e+00  5.2731088608e+01  6.9408316388e+01  1.9447430435e+02  1.7379115467e+02  3.539264e-14 9.
       -6     2     1     2     0   102 -4.3367636311e+00 -5.2731088608e+01  8.8546171969e+02  9.0333875032e+02  1.7081880918e+02  1.485923e-14 9.
       24     2     3     0     0     0  2.5489319886e+01  4.3325267937e+01  1.1241752047e+02  1.4539547251e+02  7.7300454372e+01  1.350556e-13 9.
        5     1     3     0   103     0 -2.1152556255e+01  9.4058206704e+00 -4.3009204086e+01  4.9078831840e+01  4.8000000000e+00 0. 9.
      -24     2     4     0     0     0  5.7378796371e+01 -4.2361257141e+01  3.2979866096e+02  3.4414216719e+02  6.7674752198e+01  2.230123e-13 9.
       -5     1     4     0     0   102 -6.1715560002e+01 -1.0369831466e+01  5.5566305873e+02  5.5919658313e+02  4.8000000000e+00 0. 9.
      -15     1     5     0     0     0 -4.6747551066e+00  2.2030686145e+01 -4.2825564687e+00  2.2993517490e+01  1.7768200000e+00  1.857465e-02 9.
       16     1     5     0     0     0  3.0164074993e+01  2.1294581792e+01  1.1670007694e+02  1.2240195502e+02  0.0000000000e+00 0. 9.
        3     1     7     0   104     0  1.8490763405e+00 -3.8973427503e+01  1.8379051195e+02  1.8788706560e+02  5.0000000000e-01 0. 9.
       -4     1     7     0     0   104  5.5529720031e+01 -3.3878296387e+00  1.4600814901e+02  1.5625510159e+02  1.5000000000e+00 0. 9.
#pdf   21   21  1.578987e-01  1.099562e-02  1.788252e+02  4.162725e-01  7.535502e+00
</event>
<event>
    12  9999  1.000000e+00  2.658208e+02  7.913483e-03  1.022079e-01
       -2    -1     0     0     0   101  0.0000000000e+00  0.0000000000e+00  8.8009316141e+01  8.8009316141e+01  0.0000000000e+00 0. 9.
        2    -1     0     0   102     0  0.0000000000e+00  0.0000000000e+00 -1.5388026884e+03  1.5388026884e+03  0.0000000000e+00 0. 9.
       -6     2     1     2     0   101  1.9644719444e+02 -4.6988015484e+01 -1.6436960871e+02  3.1342072306e+02  1.7440128316e+02  2.186498e-13 9.
        6     2     1     2   102     0 -1.9644719444e+02  4.6988015484e+01 -1.2864237635e+03  1.3133912815e+03  1.7120509650e+02  1.011023e-13 9.
      -24     2     3     0     0     0  1.7413899380e+02 -4.3995479125e+01 -6.1414707933e+01  2.0792492843e+02  8.4858813123e+01  2.546119e-13 9.
       -5     1     3     0     0   101  2.2308200641e+01 -2.9925363597e+00 -1.0295490078e+02  1.0549579463e+02  4.8000000000e+00 0. 9.
       24     2     4     0     0     0 -2.1042682019e+02  4.4318253415e+01 -1.2719090467e+03  1.2925040947e+03  8.1059592763e+01  1.189597e-13 9.
        5     1     4     0   102     0  1.3979625752e+01  2.6697620694e+00 -1.4514716867e+01  2.0887186775e+01  4.8000000000e+00 0. 9.
        3     1     5     0   103     0 -3.1837783831e+00 -1.7171425308e+01  2.2461787096e+00  1.7615039333e+01  5.0000000000e-01 0. 9.
       -4     1     5     0     0   103  1.7732277218e+02 -2.6824053817e+01 -6.3660886642e+01  1.9030988909e+02  1.5000000000e+00 0. 9.
       -3     1     7     0     0   104 -1.6453855654e+02  6.7117436287e+01 -1.0309156230e+03  1.0461189983e+03  5.0000000000e-01 0. 9.
        4     1     7     0   104     0 -4.5888263654e+01 -2.2799182872e+01 -2.4099342362e+02  2.4638509636e+02  1.5000000000e+00 0. 9.
#pdf   -2    2  1.353989e-02  2.367389e-01  2.647840e+02  4.393515e-01  3.867625e-01
</event>
<event>
    12  9999  1.000000e+00  2.122638e+02  7.893105e-03  1.049771e-01
       21    -1     0     0   101   102  0.0000000000e+00  0.0000000000e+00  1.9822346311e+02  1.9822346311e+02  0.0000000000e+00 0. 9.
       21    -1     0     0   103   101  0.0000000000e+00  0.0000000000e+00 -8.7984498685e+02  8.7984498685e+02  0.0000000000e+00 0. 9.
        6     2     1     2   103     0  1.0312567291e+02  6.6848881245e+01 -8.0585450357e+02  8.3386284993e+02  1.7556222326e+02  3.430439e-14 9.
       -6     2     1     2     0   102 -1.0312567291e+02 -6.6848881245e+01  1.2423297982e+02  2.4420560003e+02  1.7058389277e+02  7.558557e-14 9.
       24     2     3     0     0     0  1.4003451564e+02  6.8018349234e+01 -6.7931411279e+02  7.0195704708e+02  8.3903937375e+01  1.844230e-13 9.
        5     1     3     0   103     0 -3.6908842730e+01 -1.1694679894e+00 -1.2654039078e+02  1.3190580285e+02  4.8000000000e+00 0. 9.
      -24     2     4     0     0     0 -1.0908285138e+02 -7.0912002049e+01  1.5265246210e+02  2.1449526682e+02  7.6012267453e+01  4.959558e-14 9.
       -5     1     4     0     0   102  5.9571784687e+00  4.0631208041e+00 -2.8419482281e+01  2.9710333204e+01  4.8000000000e+00 0. 9.
       -3     1     5     0     0   104  3.2453727877e+01  5.8592096006e+01 -3.1115785858e+02  3.1828562821e+02  5.0000000000e-01 0. 9.
        4     1     5     0   104     0  1.0758078777e+02  9.4262532282e+00 -3.6815625421e+02  3.8367141887e+02  1.5000000000e+00 0. 9.
        3     1     7     0   105     0 -3.8879541973e+01 -1.2814985799e+01  1.0271498363e+02  1.1057332638e+02  5.0000000000e-01 0. 9.
       -4     1     7     0     0   105 -7.0203309408e+01 -5.8097016250e+01  4.9937478476e+01  1.0392194044e+02  1.5000000000e+00 0. 9.
#pdf   21   21  3.049592e-02  1.353608e-01  2.102440e+02  3.136815e+00  5.222517e-01
</event>
<event>
    12  9999  1.000000e+00  1.877044e+02  7.882013e-03  1.065557e-01
       21    -1     0     0   101   102  0.0000000000e+00  0.0000000000e+00  3.2851618600e+02  3.2851618600e+02  0.0000000000e+00 0. 9.
       21    -1     0     0   103   101  0.0000000000e+00  0.0000000000e+00 -1.4668901226e+02  1.4668901226e+02  0.0000000000e+00 0. 9.
        6     2     1     2   103     0 -7.5614219209e+01  1.4030334000e+01 -3.2265764548e+01  1.9052407057e+02  1.7130085081e+02  5.943403e-14 9.
       -6     2     1     2     0   102  7.5614219209e+01 -1.4030334000e+01  2.1409293829e+02  2.8468112768e+02  1.7115255713e+02  1.293733e-13 9.
       24     2     3     0     0     0 -6.0193978838e+01 -3.4961227989e+01 -6.9009368062e+01  1.2719090897e+02  8.1053265783e+01  1.939919e-13 9.
        5     1     3     0   103     0 -1.5420240371e+01  4.8991561989e+01  3.6743603513e+01  6.3333161600e+01  4.8000000000e+00 0. 9.
      -24     2     4     0     0     0  1.1363965796e+02  8.3868205141e+00  1.8481566930e+02  2.3149596727e+02  8.0307164220e+01  1.078946e-13 9.
       -5     1     4     0     0   102 -3.8025438746e+01 -2.2417154514e+01  2.9277268989e+01  5.3185160409e+01  4.8000000000e+00 0. 9.
       -1     1     5     0     0   104  1.9000970181e+01 -5.6010756310e+00 -2.5159769730e+01  3.2023925882e+01  3.3000000000e-01 0. 9.
        2     1     5     0   104     0 -7.9194949019e+01 -2.9360152358e+01 -4.3849598332e+01  9.5166983090e+01  3.3000000000e-01 0. 9.
        1     1     7     0   105     0 -2.1936989865e+00 -2.2209822927e+00  6.2951505176e+01  6.3029723000e+01  3.3000000000e-01 0. 9.
       -2     1     7     0     0   105  1.1583335694e+02  1.0607802807e+01  1.2186416412e+02  1.6846624427e+02  3.3000000000e-01 0. 9.
#pdf   21   21  5.054095e-02  2.256754e-02  1.876368e+02  1.886216e+00  4.154403e+00
</event>
<event>
    12  9999  1.000000e+00  1.823705e+02  7.879417e-03  1.069328e-01
       21    -1     0     0   101   102  0.0000000000e+00  0.0000000000e+00  7.6520994507e+01  7.6520994507e+01  0.0000000000e+00 0. 9.
       21    -1     0     0   103   101  0.0000000000e+00  0.0000000000e+00 -4.5522174194e+02  4.5522174194e+02  0.0000000000e+00 0. 9.
        6     2     1     2   103     0  5.2241430251e+01  4.1471496196e+01 -2.4687046022e+02  3.0753175991e+02  1.7082654123e+02  7.790909e-14 9.
       -6     2     1     2     0   102 -5.2241430251e+01 -4.1471496196e+01 -1.3183028721e+02  2.2421097654e+02  1.6864840747e+02  6.555119e-14 9.
       24     2     3     0     0     0  2.8586916928e+01  5.3282595955e+01 -2.5883428769e+02  2.7811728650e+02  8.1840025160e+01  2.001805e-13 9.
        5     1     3     0   103     0  2.3654513324e+01 -1.1811099759e+01  1.1963827463e+01  2.9414473404e+01  4.8000000000e+00 0. 9.
      -24     2     4     0     0     0  1.7580343585e+01  2.2338481380e+01 -7.7687741245e+01  1.1511813249e+02  8.0054500538e+01  3.191514e-14 9.
       -5     1     4     0     0   102 -6.9821773837e+01 -6.3809977577e+01 -5.4142545962e+01  1.0909284405e+02  4.8000000000e+00 0. 9.
      -13     1     5     0     0     0 -7.0467558673e+00  3.4130650076e+01 -3.0762540257e+01  4.6485514840e+01  1.0566000000e-01  8.254433e+05 9.
       14     1     5     0     0     0  3.5633672795e+01  1.9151945879e+01 -2.2807174743e+02  2.3163177166e+02  0.0000000000e+00 0. 9.
       13     1     7     0     0     0  1.7367957416e+01  2.8678200425e+01  3.4756726043e+00  3.3707218641e+01  1.0566000000e-01  9.208634e+05 9.
      -14     1     7     0     0     0  2.1238616943e-01 -6.3397190446e+00 -8.1163413849e+01  8.1410913845e+01  0.0000000000e+00 0. 9.
#pdf   21   21  1.177246e-02  7.003411e-02  1.813597e+02  7.146046e+00  1.302590e+00
</event>
<event>
    12  9999  1.000000e+00  2.253728e+02  7.898522e-03  1.042248e-01
       21    -1     0     0   101   102  0.0000000000e+00  0.0000000000e+00  3.1911302165e+02  3.1911302165e+02  0.0000000000e+00 0. 9.
       21    -1     0     0   103   101  0.0000000000e+00  0.0000000000e+00 -4.9310335801e+02  4.9310335801e+02  0.0000000000e+00 0. 9.
        6     2     1     2   103     0 -8.2383637714e+01 -1.2188283894e+02 -4.2126568201e+02  4.7804343653e+02  1.7151752734e+02  2.448449e-14 9.
       -6     2     1     2     0   102  8.2383637714e+01  1.2188283894e+02  2.4727534565e+02  3.3417294313e+02  1.6995284394e+02  1.672665e-13 9.
       24     2     3     0     0     0 -3.1736148819e+01  6.7383340341e+00 -1.8235739965e+02  2.0198405588e+02  8.0565186863e+01  2.152808e-13 9.
        5     1     3     0   103     0 -5.0647488895e+01 -1.2862117297e+02 -2.3890828236e+02  2.7605938066e+02  4.8000000000e+00 0. 9.
      -24     2     4     0     0     0 -1.3145480732e+01  3.1378593495e+01  1.3505905379e+02  1.6116321198e+02  8.1087687670e+01  3.476452e-14 9.
       -5     1     4     0     0   102  9.5529118446e+01  9.0504245446e+01  1.1221629186e+02  1.7300973115e+02  4.8000000000e+00 0. 9.
       -3     1     5     0     0   104 -4.0874814679e+01 -9.1704774397e+00 -1.7827166606e+02  1.8312805643e+02  5.0000000000e-01 0. 9.
        4     1     5     0   104     0  9.1386658596e+00  1.5908811474e+01 -4.0857335877e+00  1.8855999447e+01  1.5000000000e+00 0. 9.
        3     1     7     0   105     0  9.1550265562e+00  5.6965387452e+00  1.2527507778e+02  1.2573925472e+02  5.0000000000e-01 0. 9.
       -4     1     7     0     0   105 -2.2300507288e+01  2.5682054749e+01  9.7839760118e+00  3.5423957262e+01  1.5000000000e+00 0. 9.
#pdf   21   21  4.909431e-02  7.586206e-02  2.247809e+02  1.924437e+00  1.159969e+00
</event>
<event>
    12  9999  1.000000e+00  1.855182e+02  7.880957e-03  1.067086e-01
       21    -1     0     0   101   102  0.0000000000e+00  0.0000000000e+00  2.0232813087e+02  2.0232813087e+02  0.0000000000e+00 0. 9.
       21    -1     0     0   103   101  0.0000000000e+00  0.0000000000e+00 -1.8866486369e+02  1.8866486369e+02  0.0000000000e+00 0. 9.
        6     2     1     2   103     0  2.3337577037e+01  5.8555547113e+01 -5.4326915627e+01  1.9596388330e+02  1.7741768569e+02  5.558889e-14 9.
       -6     2     1     2     0   102 -2.3337577037e+01 -5.8555547113e+01  6.7990182810e+01  1.9502911126e+02  1.7158174344e+02  1.278726e-13 9.
       24     2     3     0     0     0 -2.1024580780e+01 -2.7839677957e+01 -4.3107025352e+01  9.8080984391e+01  8.0898598249e+01  3.815973e-14 9.
        5     1     3     0   103     0  4.4362157816e+01  8.6395225070e+01 -1.1219890275e+01  9.7882898909e+01  4.8000000000e+00 0. 9.
      -24     2     4     0     0     0 -7.6945882281e+01 -1.9576805917e+01  2.3182123932e+01  1.1487928408e+02  7.9724017153e+01  6.070267e-16 9.
       -5     1     4     0     0   102  5.3608305244e+01 -3.8978741196e+01  4.4808058878e+01  8.0149827179e+01  4.8000000000e+00 0. 9.
       -1     1     5     0     0   104 -2.5532795823e+01 -2.1316394794e+01 -6.5969076472e+01  7.3880581347e+01  3.3000000000e-01 0. 9.
        2     1     5     0   104     0  4.5082150429e+00 -6.5232831638e+00  2.2862051120e+01  2.4200403044e+01  3.3000000000e-01 0. 9.
        3     1     7     0   105     0 -2.8333677378e+01  8.2903266384e+00  4.5752556331e+01  5.4452485713e+01  5.0000000000e-01 0. 9.
       -4     1     7     0     0   105 -4.8612204903e+01 -2.7867132555e+01 -2.2570432398e+01  6.0426798368e+01  1.5000000000e+00 0. 9.
#pdf   21   21  3.112740e-02  2.902536e-02  1.827941e+02  3.092531e+00  3.304204e+00
</event>
<event>
    12  9999  1.000000e+00  2.854752e+02  7.919965e-03  1.013606e-01
       21    -1     0     0   101   102  0.0000000000e+00  0.0000000000e+00  2.6054695621e+03  2.6054695621e+03  0.0000000000e+00 0. 9.
       21    -1     0     0   102   103  0.0000000000e+00  0.0000000000e+00 -3.3770818821e+01  3.3770818821e+01  0.0000000000e+00 0. 9.
        6     2     1     2   101     0  2.2361746024e+02  4.6083168611e+01  1.6441608943e+03  1.6687539410e+03  1.7130744961e+02  4.125437e-13 9.
       -6     2     1     2     0   103 -2.2361746024e+02 -4.6083168611e+01  9.2753784902e+02  9.7048643997e+02  1.7143232436e+02  1.390468e-13 9.
       24     2     3     0     0     0  1.2808076103e+02 -3.9219383391e+01  8.2724292141e+02  8.4184294174e+02  8.0161375625e+01  6.088950e-14 9.
        5     1     3     0   101     0  9.5536699215e+01  8.5302552002e+01  8.1691797286e+02  8.2691099923e+02  4.8000000000e+00 0. 9.
      -24     2     4     0     0     0 -9.2108005205e+01 -8.5309726534e+01  4.9900053606e+02  5.2048563084e+02  7.8371696810e+01  7.498564e-14 9.
       -5     1     4     0     0   103 -1.3150945504e+02  3.9226557924e+01  4.2853731297e+02  4.5000080913e+02  4.8000000000e+00 0. 9.
       -1     1     5     0     0   104  4.6987093665e+01  1.2245334828e+01  1.4604687268e+02  1.5390754730e+02  3.3000000000e-01 0. 9.
        4     1     5     0   104     0  8.1093667363e+01 -5.1464718219e+01  6.8119604873e+02  6.8793539444e+02  1.5000000000e+00 0. 9.
        1     1     7     0   105     0 -4.5644836741e+01 -2.9965173348e+01  9.0919309785e+01  1.0605561054e+02  3.3000000000e-01 0. 9.
       -2     1     7     0     0   105 -4.6463168465e+01 -5.5344553187e+01  4.0808122627e+02  4.1443002030e+02  3.3000000000e-01 0. 9.
#pdf   21   21  4.008415e-01  5.195511e-03  2.854377e+02  3.049466e-02  1.326411e+01
</event>
<event>
    12  9999  1.000000e+00  1.865517e+02  7.881458e-03  1.066360e-01
       21    -1     0     0   101   102  0.0000000000e+00  0.0000000000e+00  1.8671418790e+02  1.8671418790e+02  0.0000000000e+00 0. 9.
       21    -1     0     0   102   103  0.0000000000e+00  0.0000000000e+00 -6.1872277956e+02  6.1872277956e+02  0.0000000000e+00 0. 9.
        6     2     1     2   101     0  6.6787231565e+01  3.1971318653e+01  1.2070098905e+02  2.2203159174e+02  1.7101637190e+02  1.237784e-13 9.
       -6     2     1     2     0   103 -6.6787231565e+01 -3.1971318653e+01 -5.5270958071e+02  5.8340537572e+02  1.7143877127e+02  2.526422e-13 9.
       24     2     3     0     0     0 -1.4462107218e+01 -1.7912004923e+01  2.5114700543e+01  8.6940586957e+01  7.9987030270e+01  1.211949e-14 9.
        5     1     3     0   101     0  8.1249338783e+01  4.9883323577e+01  9.5586288504e+01  1.3509100478e+02  4.8000000000e+00 0. 9.
      -24     2     4     0     0     0 -7.3127600073e+01  1.2246522775e+01 -5.0825591063e+02  5.2020263403e+02  8.2395913442e+01  1.380233e-13 9.
       -5     1     4     0     0   103  6.3403685075e+00 -4.4217841428e+01 -4.4453670080e+01  6.3202741689e+01  4.8000000000e+00 0. 9.
      -11     1     5     0     0     0 -2.5788281310e+01 -2.1265532665e+01  4.9567300128e+01  5.9784409127e+01  5.1100000000e-04 0. 9.
       12     1     5     0     0     0  1.1326174092e+01  3.3535277420e+00 -2.4452599584e+01  2.7156177830e+01  0.0000000000e+00 0. 9.
        1     1     7     0   104     0 -4.1699869951e+01  4.3702832563e+01 -2.0535403411e+02  2.1405421031e+02  3.3000000000e-01 0. 9.
       -2     1     7     0     0   104 -3.1427730121e+01 -3.1456309788e+01 -3.0290187652e+02  3.0614842372e+02  3.3000000000e-01 0. 9.
#pdf   21   21  2.872526e-02  9.518812e-02  1.863580e+02  3.334482e+00  8.806430e-01
</event>
<event>
    12  9999  1.000000e+00  2.999094e+02  7.924454e-03  1.007830e-01
       -2    -1     0     0     0   101  0.0000000000e+00  0.0000000000e+00  1.1032834038e+02  1.1032834038e+02  0.0000000000e+00 0. 9.
        2    -1     0     0   102     0  0.0000000000e+00  0.0000000000e+00 -8.7020838267e+02  8.7020838267e+02  0.0000000000e+00 0. 9.
       -6     2     1     2     0   101  1.3841782247e+02 -2.0334555109e+02 -2.5703288425e+02  3.9517211643e+02  1.7200636992e+02  8.999529e-14 9.
        6     2     1     2   102     0 -1.3841782247e+02  2.0334555109e+02 -5.0284715805e+02  5.8536460662e+02  1.7113606167e+02  4.296369e-14 9.
      -24     2     3     0     0     0  1.2281195604e+02 -1.7297667490e+02 -2.7471902365e+02  3.5642097149e+02  8.1004076172e+01  2.344924e-14 9.
       -5     1     3     0     0   101  1.5605866432e+01 -3.0368876184e+01  1.7686139394e+01  3.8751144943e+01  4.8000000000e+00 0. 9.
       24     2     4     0     0     0 -5.2070437524e+01  1.4697441349e+02 -4.1239347469e+02  4.4811124647e+02  8.0140517580e+01  5.980969e-14 9.
        5     1     4     0   102     0 -8.6347384949e+01  5.6371137592e+01 -9.0453683357e+01  1.3725336016e+02  4.8000000000e+00 0. 9.
        3     1     5     0   103     0  1.0758663658e+02 -1.6127276990e+02 -1.9716478201e+02  2.7651038307e+02  5.0000000000e-01 0. 9.
       -4     1     5     0     0   103  1.5225319464e+01 -1.1703904998e+01 -7.7554241636e+01  7.9910588414e+01  1.5000000000e+00 0. 9.
       -3     1     7     0     0   104  1.4239991009e+01  1.3301328883e+01 -1.0031230723e+02  1.0218860835e+02  5.0000000000e-01 0. 9.
        4     1     7     0   104     0 -6.6310428532e+01  1.3367308461e+02 -3.1208116746e+02  3.4592263812e+02  1.5000000000e+00 0. 9.
#pdf   -2    2  1.697359e-02  1.338782e-01  2.996606e+02  3.798864e-01  5.297017e-01
</event>
<event>
    12  9999  1.000000e+00  1.754464e+02  7.875934e-03  1.074434e-01
       21    -1     0     0   101   102  0.0000000000e+00  0.0000000000e+00  2.0617651147e+01  2.0617651147e+01  0.0000000000e+00 0. 9.
       21    -1     0     0   103   101  0.0000000000e+00  0.0000000000e+00 -1.5183007860e+03  1.5183007860e+03  0.0000000000e+00 0. 9.
        6     2     1     2   103     0 -4.4217543247e+01  2.0088915103e+00 -8.4079203414e+02  8.5855670634e+02  1.6801531640e+02  5.373010e-14 9.
       -6     2     1     2     0   102  4.4217543247e+01 -2.0088915103e+00 -6.5689110075e+02  6.8036173085e+02  1.7154282201e+02  3.307589e-14 9.
       24     2     3     0     0     0 -2.1316199418e+01  6.2008619822e+01 -6.1792315576e+02  6.2656960347e+02  8.0380297814e+01  3.001220e-13 9.
        5     1     3     0   103     0 -2.2901343830e+01 -5.9999728312e+01 -2.2286887838e+02  2.3198710287e+02  4.8000000000e+00 0. 9.
      -24     2     4     0     0     0 -1.8756597034e+01 -2.6827712812e+01 -1.5227140095e+02  1.7119987283e+02  7.1072363140e+01  1.785623e-13 9.
       -5     1     4     0     0   102  6.2974140282e+01  2.4818821302e+01 -5.0461969980e+02  5.0916185802e+02  4.8000000000e+00 0. 9.
       -1     1     5     0     0   104  2.0827957755e+01  1.0600131514e+01 -5.5375155273e+01  6.0105601518e+01  3.3000000000e-01 0. 9.
        4     1     5     0   104     0 -4.2144157173e+01  5.1408488308e+01 -5.6254800049e+02  5.6646400195e+02  1.5000000000e+00 0. 9.
        1     1     7     0   105     0 -1.2141539739e+01 -4.0121882113e+01 -1.5051511489e+02  1.5624369146e+02  3.3000000000e-01 0. 9.
       -2     1     7     0     0   105 -6.6150572955e+00  1.3294169300e+01 -1.7562860627e+00  1.4956181369e+01  3.3000000000e-01 0. 9.
#pdf   21   21  3.171946e-03  2.335847e-01  1.737480e+02  1.818790e+01  1.984102e-01
</event>
<event>
    12  9999  1.000000e+00  2.228245e+02  7.897494e-03  1.043667e-01
       21    -1     0     0   101   102  0.0000000000e+00  0.0000000000e+00  8.1979874402e+01  8.1979874402e+01  0.0000000000e+00 0. 9.
       21    -1     0     0   102   103  0.0000000000e+00  0.0000000000e+00 -6.3110926659e+02  6.3110926659e+02  0.0000000000e+00 0. 9.
        6     2     1     2   101     0 -8.2681200458e+01  1.1700904387e+02 -2.0293270650e+02  3.0137527702e+02  1.7064019742e+02  5.191796e-14 9.
       -6     2     1     2     0   103  8.2681200458e+01 -1.1700904387e+02 -3.4619668568e+02  4.1171386397e+02  1.7067180010e+02  6.257755e-14 9.
       24     2     3     0     0     0  1.5674148230e+01  7.4676546799e+01 -6.3549300416e+01  1.2554413980e+02  7.6815049899e+01  2.839156e-14 9.
        5     1     3     0   101     0 -9.8355348688e+01  4.2332497073e+01 -1.3938340609e+02  1.7583113722e+02  4.8000000000e+00 0. 9.
      -24     2     4     0     0     0  8.0102363115e+01 -1.9617134709e+01 -1.5639337143e+02  1.9831242894e+02  8.9820444734e+01  8.887187e-14 9.
       -5     1     4     0     0   103  2.5788373433e+00 -9.7391909163e+01 -1.8980331425e+02  2.1340143503e+02  4.8000000000e+00 0. 9.
       -1     1     5     0     0   104  2.6015822322e+01  8.4986734055e+01 -3.9180326385e+01  9.7132769198e+01  3.3000000000e-01 0. 9.
        2     1     5     0   104     0 -1.0341674092e+01 -1.0310187256e+01 -2.4368974031e+01  2.8411370605e+01  3.3000000000e-01 0. 9.
        3     1     7     0   105     0  4.5585598545e+01 -8.9889949519e+00 -1.5534994363e+02  1.6215025073e+02  5.0000000000e-01 0. 9.
       -4     1     7     0     0   105  3.4516764570e+01 -1.0628139757e+01 -1.0434277984e+00  3.6162178207e+01  1.5000000000e+00 0. 9.
#pdf   21   21  1.261229e-02  9.709373e-02  2.228124e+02  6.769467e+00  8.418042e-01
</event>
<event>
    12  9999  1.000000e+00  2.223822e+02  7.897314e-03  1.043915e-01
       21    -1     0     0   101   102  0.0000000000e+00  0.0000000000e+00  2.8739689004e+02  2.8739689004e+02  0.0000000000e+00 0. 9.
       21    -1     0     0   102   103  0.0000000000e+00  0.0000000000e+00 -1.9507091615e+02  1.9507091615e+02  0.0000000000e+00 0. 9.
        6     2     1     2   101     0 -3.9501260291e+01  1.3612682675e+02  1.2901805567e+02  2.5723577753e+02  1.7156259507e+02  2.649026e-14 9.
       -6     2     1     2     0   103  3.9501260291e+01 -1.3612682675e+02 -3.6692081783e+01  2.2523202867e+02  1.7114992067e+02  1.901454e-13 9.
       24     2     3     0     0     0 -6.6609338700e+01  6.5576105459e+01  1.3388356739e+02  1.8134793005e+02  7.8900142644e+01  3.481055e-16 9.
        5     1     3     0   101     0  2.7108078409e+01  7.0550721294e+01 -4.8655117190e+00  7.5887847475e+01  4.8000000000e+00 0. 9.
      -24     2     4     0     0     0  5.7318109679e+01 -3.2173691208e+01 -5.6258279342e+01  1.1785619061e+02  8.0028592183e+01  2.804691e-14 9.
       -5     1     4     0     0   103 -1.7816849389e+01 -1.0395313554e+02  1.9566197560e+01  1.0737583806e+02  4.8000000000e+00 0. 9.
       -3     1     5     0     0   104 -6.8930344567e+01  7.1468754489e+01  1.4051394584e+02  1.7205695059e+02  5.0000000000e-01 0. 9.
        4     1     5     0   104     0  2.3210058671e+00 -5.8926490304e+00 -6.6303784585e+00  9.2909794604e+00  1.5000000000e+00 0. 9.
        1     1     7     0   105     0 -3.2186348720e+00 -5.9633442699e+00 -5.1251244580e+01  5.1698356418e+01  3.3000000000e-01 0. 9.
       -2     1     7     0     0   105  6.0536744551e+01 -2.6210346938e+01 -5.0070347621e+00  6.6157834189e+01  3.3000000000e-01 0. 9.
#pdf   21   21  4.421491e-02  3.001091e-02  2.222232e+02  2.154399e+00  3.178180e+00
</event>
<event>
    12  9999  1.000000e+00  2.563642e+02  7.910195e-03  1.026437e-01
       21    -1     0     0   101   102  0.0000000000e+00  0.0000000000e+00  9.5090824269e+01  9.5090824269e+01  0.0000000000e+00 0. 9.
       21    -1     0     0   102   103  0.0000000000e+00  0.0000000000e+00 -7.5169773577e+02  7.5169773577e+02  0.0000000000e+00 0. 9.
        6     2     1     2   101     0  1.2780024849e+02 -1.4050332609e+02 -2.0905459842e+02  3.3139146568e+02  1.7332740768e+02  5.543154e-13 9.
       -6     2     1     2     0   103 -1.2780024849e+02  1.4050332609e+02 -4.4755231308e+02  5.1539709435e+02  1.7104678825e+02  1.000388e-13 9.
       24     2     3     0     0     0  1.5293269527e+02 -7.9819447979e+01 -1.4305155233e+02  2.3815190843e+02  8.0579347888e+01  9.398758e-15 9.
        5     1     3     0   101     0 -2.5132446783e+01 -6.0683878112e+01 -6.6003046087e+01  9.3239557253e+01  4.8000000000e+00 0. 9.
      -24     2     4     0     0     0 -9.3927778333e+01  1.6912535854e+02 -3.4671866388e+02  4.0513817277e+02  8.0605785862e+01  9.669433e-15 9.
       -5     1     4     0     0   103 -3.3872470154e+01 -2.8622032452e+01 -1.0083364921e+02  1.1025892158e+02  4.8000000000e+00 0. 9.
       -3     1     5     0     0   104  1.0696463967e+02 -3.8275970313e+01 -1.3373908030e+02  1.7547898918e+02  5.0000000000e-01 0. 9.
        4     1     5     0   104     0  4.5968055602e+01 -4.1543477666e+01 -9.3124720314e+00  6.2672919254e+01  1.5000000000e+00 0. 9.
       13     1     7     0     0     0 -2.8427265472e+01  8.1364718632e+00 -9.3082621176e+01  9.7666253771e+01  1.0566000000e-01  1.353006e+06 9.
      -14     1     7     0     0     0 -6.5500512861e+01  1.6098888668e+02 -2.5363604270e+02  3.0747191900e+02  0.0000000000e+00 0. 9.
#pdf   21   21  1.462936e-02  1.156458e-01  2.555995e+02  5.993525e+00  6.473431e-01
</event>
<event>
    12  9999  1.000000e+00  2.010934e+02  7.888224e-03  1.056652e-01
       21    -1     0     0   101   102  0.0000000000e+00  0.0000000000e+00  7.3839281032e+01  7.3839281032e+01  0.0000000000e+00 0. 9.
       21    -1     0     0   103   101  0.0000000000e+00  0.0000000000e+00 -5.7805900763e+02  5.7805900763e+02  0.0000000000e+00 0. 9.
        6     2     1     2   103     0  4.9328154054e+01  6.7774557106e+01 -1.9306970940e+02  2.8726734833e+02  1.9549925665e+02  1.620296e-14 9.
       -6     2     1     2     0   102 -4.9328154054e+01 -6.7774557106e+01 -3.1115001720e+02  3.6463094034e+02  1.7063039612e+02  9.467356e-14 9.
       24     2     3     0     0     0  8.1132564014e+01  1.0669513988e+02 -1.7215333012e+02  2.3261510977e+02  8.0663959766e+01  2.097821e-13 9.
        5     1     3     0   103     0 -3.1804409960e+01 -3.8920582776e+01 -2.0916379285e+01  5.4652238553e+01  4.8000000000e+00 0. 9.
      -24     2     4     0     0     0  3.8286253153e+01 -3.6415625349e+01 -1.4295103942e+02  1.7234572750e+02  8.0474313708e+01  1.506832e-13 9.
       -5     1     4     0     0   102 -8.7614407207e+01 -3.1358931757e+01 -1.6819897778e+02  1.9228521284e+02  4.8000000000e+00 0. 9.
      -15     1     5     0     0     0  6.2045486924e+01  4.3741131029e+01 -1.4028630668e+02  1.5951907072e+02  1.7768200000e+00  7.610110e-03 9.
       16     1     5     0     0     0  1.9087077089e+01  6.2954008852e+01 -3.1867023437e+01  7.3096039052e+01  0.0000000000e+00 0. 9.
        1     1     7     0   104     0  1.7683555056e+01 -3.8946694210e+01 -1.4528852051e+02  1.5145433702e+02  3.3000000000e-01 0. 9.
       -2     1     7     0     0   104  2.0602698097e+01  2.5310688603e+00  2.3374810919e+00  2.0891390483e+01  3.3000000000e-01 0. 9.
#pdf   21   21  1.135989e-02  8.893216e-02  1.901089e+02  7.351228e+00  9.616967e-01
</event>
<event>
    12  9999  1.000000e+00  1.897534e+02  7.882991e-03  1.064144e-01
       21    -1     0     0   101   102  0.0000000000e+00  0.0000000000e+00  2.1908402430e+02  2.1908402430e+02  0.0000000000e+00 0. 9.
       21    -1     0     0   102   103  0.0000000000e+00  0.0000000000e+00 -3.2337848429e+02  3.2337848429e+02  0.0000000000e+00 0. 9.
        6     2     1     2   101     0  4.3489130070e+01  6.7642561257e+01  1.3788718567e+02  2.3552195504e+02  1.7317879433e+02  9.107857e-14 9.
       -6     2     1     2     0   103 -4.3489130070e+01 -6.7642561257e+01 -2.4218164565e+02  3.0694055355e+02  1.7056885236e+02  2.317363e-13 9.
       24     2     3     0     0     0  5.0017954791e+01 -1.3095502468e+01  3.0156504145e+01  1.0065090467e+02  8.0919107026e+01  3.598123e-15 9.
        5     1     3     0   101     0 -6.5288247206e+00  8.0738063725e+01  1.0773068152e+02  1.3487105037e+02  4.8000000000e+00 0. 9.
      -24     2     4     0     0     0 -4.3498718525e+01  6.7119937393e+00 -2.0357820305e+02  2.2302472834e+02  7.9741804080e+01  1.327433e-13 9.
       -5     1     4     0     0   103  9.5884547938e-03 -7.4354554996e+01 -3.8603442601e+01  8.3915825213e+01  4.8000000000e+00 0. 9.
       -3     1     5     0     0   104  5.7702279665e+00 -3.1198490877e+01  4.0763112028e+01  5.1657745460e+01  5.0000000000e-01 0. 9.
        4     1     5     0   104     0  4.4247726824e+01  1.8102988409e+01 -1.0606607883e+01  4.8993159208e+01  1.5000000000e+00 0. 9.
        3     1     7     0   105     0 -4.1700703245e+01  2.5576170891e+01 -5.6557644744e+01  7.4780387453e+01  5.0000000000e-01 0. 9.
       -4     1     7     0     0   105 -1.7980152794e+00 -1.8864177151e+01 -1.4702055831e+02  1.4824434088e+02  1.5000000000e+00 0. 9.
#pdf   21   21  3.370523e-02  4.975054e-02  1.885751e+02  2.860615e+00  1.918159e+00
</event>
<event>
    12  9999  1.000000e+00  1.757141e+02  7.876071e-03  1.074232e-01
       21    -1     0     0   101   102  0.0000000000e+00  0.0000000000e+00  7.8039237301e+02  7.8039237301e+02  0.0000000000e+00 0. 9.
       21    -1     0     0   102   103  0.0000000000e+00  0.0000000000e+00 -7.8844453605e+01  7.8844453605e+01  0.0000000000e+00 0. 9.
        6     2     1     2   101     0 -4.1172048156e+01  2.6098790624e+01  6.5219078299e+02  6.7498422975e+02  1.6695690634e+02  9.288694e-14 9.
       -6     2     1     2     0   103  4.1172048156e+01 -2.6098790624e+01  4.9357136413e+01  1.8425259686e+02  1.7069448765e+02  5.012038e-13 9.
       24     2     3     0     0     0 -2.1325301470e+00 -1.7850958713e+00  5.8905409458e+02  5.9554320436e+02  8.7631316657e+01  6.218602e-14 9.
        5     1     3     0   101     0 -3.9039518009e+01  2.7883886496e+01  6.3136688406e+01  7.9441025392e+01  4.8000000000e+00 0. 9.
      -24     2     4     0     0     0  1.2003270179e+01 -1.4710616605e+01  9.5184952869e+01  1.2854140519e+02  8.4274770008e+01  3.948953e-13 9.
       -5     1     4     0     0   103  2.9168777977e+01 -1.1388174019e+01 -4.5827816456e+01  5.5711191670e+01  4.8000000000e+00 0. 9.
      -13     1     5     0     0     0 -1.9896981191e+01  2.7545974260e+01  4.8053860410e+02  4.8173855124e+02  1.0566000000e-01  8.385195e+05 9.
       14     1     5     0     0     0  1.7764451044e+01 -2.9331070131e+01  1.0851549049e+02  1.1380465312e+02  0.0000000000e+00 0. 9.
       13     1     7     0     0     0  2.6325932320e+01  2.3823545115e+01  7.4484229026e+01  8.2513802191e+01  1.0566000000e-01  3.685492e+04 9.
      -14     1     7     0     0     0 -1.4322662141e+01 -3.8534161721e+01  2.0700723843e+01  4.6027603000e+01  0.0000000000e+00 0. 9.
#pdf   21   21  1.200604e-01  1.212992e-02  1.739278e+02  6.409301e-01  6.977644e+00
</event>
<event>
    12  9999  1.000000e+00  2.053369e+02  7.890109e-03  1.053983e-01
       21    -1     0     0   101   102  0.0000000000e+00  0.0000000000e+00  7.0032619881e+02  7.0032619881e+02  0.0000000000e+00 0. 9.
       21    -1     0     0   102   103  0.0000000000e+00  0.0000000000e+00 -7.1076611124e+01  7.1076611124e+01  0.0000000000e+00 0. 9.
        6     2     1     2   101     0  9.0711844021e+01 -6.7249616913e+01  4.6499575168e+02  5.0816813679e+02  1.7106331152e+02  2.733708e-13 9.
       -6     2     1     2     0   103 -9.0711844021e+01  6.7249616913e+01  1.6425383600e+02  2.6323467314e+02  1.7193609534e+02  2.405161e-14 9.
       24     2     3     0     0     0  2.1830326273e+01 -6.6688996267e+01  1.4419289595e+02  1.8001803390e+02  8.1798019035e+01  1.293156e-13 9.
        5     1     3     0   101     0  6.8881517748e+01 -5.6062064619e-01  3.2080285574e+02  3.2815010290e+02  4.8000000000e+00 0. 9.
      -24     2     4     0     0     0 -1.0335614965e+02  9.5550225471e+00  1.5578541196e+02  2.0337401085e+02  7.9486486802e+01  5.496114e-13 9.
       -5     1     4     0     0   103  1.2644305628e+01  5.7694594366e+01  8.4684240448e+00  5.9860662289e+01  4.8000000000e+00 0. 9.
       -3     1     5     0     0   104  5.1982914081e+01 -3.0851269001e+01  7.2883702981e+01  9.4690592539e+01  5.0000000000e-01 0. 9.
        4     1     5     0   104     0 -3.0152587807e+01 -3.5837727266e+01  7.1309192966e+01  8.5327441357e+01  1.5000000000e+00 0. 9.
        1     1     7     0   105     0 -1.1033133487e+02  2.2244881354e+01  1.1878368520e+02  1.6363835421e+02  3.3000000000e-01 0. 9.
       -2     1     7     0     0   105  6.9751852158e+00 -1.2689858806e+01  3.7001726761e+01  3.9735656640e+01  3.3000000000e-01 0. 9.
#pdf   21   21  1.077425e-01  1.093486e-02  2.049727e+02  7.351799e-01  7.577053e+00
</event>
<event>
    12  9999  1.000000e+00  2.910428e+02  7.921722e-03  1.011337e-01
       21    -1     0     0   101   102  0.0000000000e+00  0.0000000000e+00  1.3072386110e+02  1.3072386110e+02  0.0000000000e+00 0. 9.
       21    -1     0     0   103   101  0.0000000000e+00  0.0000000000e+00 -6.8420291886e+02  6.8420291886e+02  0.0000000000e+00 0. 9.
        6     2     1     2   103     0  1.3907030919e+02  1.9018154633e+02 -1.8287299252e+02  3.4362613963e+02  1.7066581668e+02  7.098302e-15 9.
       -6     2     1     2     0   102 -1.3907030919e+02 -1.9018154633e+02 -3.7060606524e+02  4.7130064032e+02  1.7107269363e+02  3.781984e-14 9.
       24     2     3     0     0     0 -4.5154992583e-01  4.4743033681e+01 -6.5073738032e+01  1.1013435286e+02  7.6764844416e+01  2.056037e-13 9.
        5     1     3     0   103     0  1.3952185911e+02  1.4543851265e+02 -1.1779925448e+02  2.3349178677e+02  4.8000000000e+00 0. 9.
      -24     2     4     0     0     0 -1.6203594864e+02 -1.2149990443e+02 -2.9035252339e+02  3.6309592919e+02  8.0722924416e+01  1.150651e-14 9.
       -5     1     4     0     0   102  2.2965639455e+01 -6.8681641905e+01 -8.0253541851e+01  1.0820471113e+02  4.8000000000e+00 0. 9.
       -3     1     5     0     0   104 -8.9420266222e-01  6.0727572343e+01 -7.0617582082e+01  9.3143601714e+01  5.0000000000e-01 0. 9.
        4     1     5     0   104     0  4.4265273639e-01 -1.5984538662e+01  5.5438440493e+00  1.6990751147e+01  1.5000000000e+00 0. 9.
        1     1     7     0   105     0 -4.3339078435e+01 -3.6800205125e-01 -9.4858241078e+01  1.0429096771e+02  3.3000000000e-01 0. 9.
       -2     1     7     0     0   105 -1.1869687021e+02 -1.2113190238e+02 -1.9549428232e+02  2.5880496148e+02  3.3000000000e-01 0. 9.
#pdf   21   21  2.011136e-02  1.052620e-01  2.909233e+02  4.553866e+00  7.313079e-01
</event>
<event>
    12  9999  1.000000e+00  1.773142e+02  7.876886e-03  1.073032e-01
        1    -1     0     0   101     0  0.0000000000e+00  0.0000000000e+00  1.0751875593e+03  1.0751875593e+03  0.0000000000e+00 0. 9.
       -1    -1     0     0     0   102  0.0000000000e+00  0.0000000000e+00 -4.3772514855e+01  4.3772514855e+01  0.0000000000e+00 0. 9.
        6     2     1     2   101     0  4.4069077211e+01 -2.5252897374e+01  1.9538984153e+02  2.6455254591e+02  1.7097095362e+02  2.499543e-13 9.
       -6     2     1     2     0   102 -4.4069077211e+01  2.5252897374e+01  8.3602520289e+02  8.5440752822e+02  1.6880252373e+02  1.187463e-13 9.
       24     2     3     0     0     0  3.8396663458e+01 -6.2463148249e+01  1.9899004429e+02  2.2643718801e+02  7.9377665208e+01  1.982264e-13 9.
        5     1     3     0   101     0  5.6724137529e+00  3.7210250875e+01 -3.6002027590e+00  3.8115357901e+01  4.8000000000e+00 0. 9.
      -24     2     4     0     0     0 -5.1441775145e+01  1.4524991576e+01  8.3476122806e+02  8.4047618693e+02  8.1955361705e+01  3.947390e-15 9.
       -5     1     4     0     0   102  7.3726979344e+00  1.0727905798e+01  1.2639748243e+00  1.3931341285e+01  4.8000000000e+00 0. 9.
      -15     1     5     0     0     0  5.5512405134e+01 -2.2743643619e+01  1.4718543258e+02  1.5895159358e+02  1.7768200000e+00  8.096741e-02 9.
       16     1     5     0     0     0 -1.7115741676e+01 -3.9719504630e+01  5.1804611714e+01  6.7485594433e+01  0.0000000000e+00 0. 9.
        3     1     7     0   103     0  6.0386192263e+00  2.3705519995e+01  8.4839472028e+01  8.8297240129e+01  5.0000000000e-01 0. 9.
       -4     1     7     0     0   103 -5.7480394372e+01 -9.1805284189e+00  7.4992175604e+02  7.5217894680e+02  1.5000000000e+00 0. 9.
#pdf    1   -1  1.654135e-01  6.734233e-03  1.762784e+02  2.635091e-01  6.659800e-01
</event>
<event>
    12  9999  1.000000e+00  1.876818e+02  7.882002e-03  1.065572e-01
       21    -1     0     0   101   102  0.0000000000e+00  0.0000000000e+00  9.6945559532e+02  9.6945559532e+02  0.0000000000e+00 0. 9.
       21    -1     0     0   102   103  0.0000000000e+00  0.0000000000e+00 -3.7493533180e+01  3.7493533180e+01  0.0000000000e+00 0. 9.
        6     2     1     2   101     0 -7.4777208768e+01 -1.8946931373e+01  3.7788807493e+02  4.2200934847e+02  1.7129470472e+02  5.778270e-14 9.
       -6     2     1     2     0   103  7.4777208768e+01  1.8946931373e+01  5.5407398722e+02  5.8493978004e+02  1.7089747159e+02  2.617768e-13 9.
       24     2     3     0     0     0 -1.1474470395e+02 -3.0998608256e+00  3.2654719728e+02  3.5487175815e+02  7.8261973272e+01  3.441504e-13 9.
        5     1     3     0   101     0  3.9967495182e+01 -1.5847070548e+01  5.1340877642e+01  6.7137590313e+01  4.8000000000e+00 0. 9.
      -24     2     4     0     0     0  7.5678232087e+00  3.8905304370e+01  3.6325959961e+02  3.8159620705e+02  1.0994195679e+02  9.863184e-14 9.
       -5     1     4     0     0   103  6.7209385560e+01 -1.9958372997e+01  1.9081438760e+02  2.0334357299e+02  4.8000000000e+00 0. 9.
       -1     1     5     0     0   104 -3.7235994313e+01  8.0079859169e+00  2.1641642654e+02  2.1974263512e+02  3.3000000000e-01 0. 9.
        2     1     5     0   104     0 -7.7508709637e+01 -1.1107846742e+01  1.1013077074e+02  1.3512912304e+02  3.3000000000e-01 0. 9.
        1     1     7     0   105     0  4.2847023239e+01 -1.6860281258e+01  2.0542275758e+02  2.1052020026e+02  3.3000000000e-01 0. 9.
       -2     1     7     0     0   105 -3.5279200030e+01  5.5765585628e+01  1.5783684203e+02  1.7107600679e+02  3.3000000000e-01 0. 9.
#pdf   21   21  1.491470e-01  5.768236e-03  1.875008e+02  4.543326e-01  1.215499e+01
</event>
<event>
    12  9999  1.000000e+00  1.951752e+02  7.885530e-03  1.060494e-01
       21    -1     0     0   101   102  0.0000000000e+00  0.0000000000e+00  5.4986000531e+02  5.4986000531e+02  0.0000000000e+00 0. 9.
       21    -1     0     0   102   103  0.0000000000e+00  0.0000000000e+00 -1.0229312201e+02  1.0229312201e+02  0.0000000000e+00 0. 9.
        6     2     1     2   101     0 -8.6134239960e+01 -3.5685607144e+01  4.0935598123e+02  4.5368520610e+02  1.7194585491e+02  9.319691e-14 9.
       -6     2     1     2     0   103  8.6134239960e+01  3.5685607144e+01  3.8210902073e+01  1.9846792122e+02  1.7098793192e+02  2.265538e-13 9.
       24     2     3     0     0     0 -1.2725752147e+02 -3.0320645805e+01  3.0427860260e+02  3.4061795801e+02  7.9506647440e+01  3.028316e-13 9.
        5     1     3     0   101     0  4.1123281509e+01 -5.3649613390e+00  1.0507737863e+02  1.1306724809e+02  4.8000000000e+00 0. 9.
      -24     2     4     0     0     0  4.1186186958e+01  4.3682513969e+01 -4.6256215609e+01  1.0233253773e+02  6.8759339539e+01  1.048294e-13 9.
       -5     1     4     0     0   103  4.4948053003e+01 -7.9969068252e+00  8.4467117682e+01  9.6135383481e+01  4.8000000000e+00 0. 9.
      -15     1     5     0     0     0 -9.3638629411e+01 -5.0417612314e+01  1.6815022368e+02  1.9896678960e+02  1.7768200000e+00  3.230188e-02 9.
       16     1     5     0     0     0 -3.3618892058e+01  2.0096966509e+01  1.3612837892e+02  1.4165116841e+02  0.0000000000e+00 0. 9.
       11     1     7     0     0     0  3.4330204480e+01 -9.5570465437e+00 -2.9010217885e+01  4.5950982799e+01  5.1100000000e-04 0. 9.
      -12     1     7     0     0     0  6.8559824780e+00  5.3239560513e+01 -1.7245997725e+01  5.6381554935e+01  0.0000000000e+00 0. 9.
#pdf   21   21  8.459385e-02  1.573740e-02  1.947548e+02  1.023812e+00  5.655742e+00
</event>
<event>
    12  9999  1.000000e+00  2.636482e+02  7.912737e-03  1.023063e-01
       21    -1     0     0   101   102  0.0000000000e+00  0.0000000000e+00  8.9201759205e+01  8.9201759205e+01  0.0000000000e+00 0. 9.
       21    -1     0     0   102   103  0.0000000000e+00  0.0000000000e+00 -8.8259057961e+02  8.8259057961e+02  0.0000000000e+00 0. 9.
        6     2     1     2   101     0 -1.8886373841e+02  6.9121245091e+01 -5.6298670520e+02  6.2167126863e+02  1.7051063838e+02  3.297438e-14 9.
       -6     2     1     2     0   103  1.8886373841e+02 -6.9121245091e+01 -2.3040211520e+02  3.5012107018e+02  1.7044756052e+02  8.697557e-14 9.
       24     2     3     0     0     0 -1.8276735087e+02  1.0084850736e+02 -4.3142657116e+02  4.8611724258e+02  8.1281985959e+01  7.703897e-14 9.
        5     1     3     0   101     0 -6.0963875374e+00 -3.1727262270e+01 -1.3156013404e+02  1.3555402605e+02  4.8000000000e+00 0. 9.
      -24     2     4     0     0     0  1.8220310318e+02 -6.1024257494e+01 -1.2272818254e+02  2.4183145367e+02  8.0612123048e+01  8.397693e-14 9.
       -5     1     4     0     0   103  6.6606352290e+00 -8.0969875969e+00 -1.0767393266e+02  1.0828961651e+02  4.8000000000e+00 0. 9.
       -3     1     5     0     0   104 -4.7031983306e+00  2.9942059444e+01 -3.9098958055e+01  4.9473482991e+01  5.0000000000e-01 0. 9.
        4     1     5     0   104     0 -1.7806415254e+02  7.0906447917e+01 -3.9232761311e+02  4.3664375958e+02  1.5000000000e+00 0. 9.
       13     1     7     0     0     0  1.7025624742e+02 -2.8131723162e+01 -9.3691014820e+01  1.9635834858e+02  1.0566000000e-01  7.128382e+05 9.
      -14     1     7     0     0     0  1.1946855759e+01 -3.2892534332e+01 -2.9037167724e+01  4.5473105092e+01  0.0000000000e+00 0. 9.
#pdf   21   21  1.372335e-02  1.357832e-01  2.636278e+02  6.316756e+00  5.046908e-01
</event>
<event>
    12  9999  1.000000e+00  1.977935e+02  7.886732e-03  1.058777e-01
       21    -1     0     0   101   102  0.0000000000e+00  0.0000000000e+00  3.9068802227e+01  3.9068802227e+01  0.0000000000e+00 0. 9.
       21    -1     0     0   103   101  0.0000000000e+00  0.0000000000e+00 -1.0584469584e+03  1.0584469584e+03  0.0000000000e+00 0. 9.
        6     2     1     2   103     0  7.6988178770e+01  8.7825487633e+01 -6.1260456126e+02  6.4108746508e+02  1.4855400854e+02  1.398358e-13 9.
       -6     2     1     2     0   102 -7.6988178770e+01 -8.7825487633e+01 -4.0677359487e+02  4.5642829551e+02  1.7094307681e+02  1.103514e-13 9.
       24     2     3     0     0     0  7.9282407426e+00  8.6109753266e+01 -3.7092251768e+02  3.8968048631e+02  8.2399154592e+01  4.900849e-14 9.
        5     1     3     0   103     0  6.9059938027e+01  1.7157343673e+00 -2.4168204358e+02  2.5140697877e+02  4.8000000000e+00 0. 9.
      -24     2     4     0     0     0 -8.8742230868e+01 -4.0460839283e+00 -2.0424428979e+02  2.3688717034e+02  8.0673708376e+01  5.107480e-14 9.
       -5     1     4     0     0   102  1.1754052098e+01 -8.3779403705e+01 -2.0252930508e+02  2.1954112517e+02  4.8000000000e+00 0. 9.
       -1     1     5     0     0   104  3.8641813135e+01  3.1260793678e+01 -2.3097094574e+02  2.3625857365e+02  3.3000000000e-01 0. 9.
        2     1     5     0   104     0 -3.0713572392e+01  5.4848959587e+01 -1.3995157194e+02  1.5342191266e+02  3.3000000000e-01 0. 9.
        1     1     7     0   105     0 -4.1404395043e+01  2.4421571564e+01 -1.5701816836e+02  1.6421190938e+02  3.3000000000e-01 0. 9.
       -2     1     7     0     0   105 -4.7337835824e+01 -2.8467655492e+01 -4.7226121429e+01  7.2675260956e+01  3.3000000000e-01 0. 9.
#pdf   21   21  6.010585e-03  1.628380e-01  1.889677e+02  1.180868e+01  3.919972e-01
</event>
<event>
    12  9999  1.000000e+00  1.996911e+02  7.887593e-03  1.057550e-01
       21    -1     0     0   101   102  0.0000000000e+00  0.0000000000e+00  1.6449944189e+02  1.6449944189e+02  0.0000000000e+00 0. 9.
       21    -1     0     0   102   103  0.0000000000e+00  0.0000000000e+00 -4.3858964538e+02  4.3858964538e+02  0.0000000000e+00 0. 9.
        6     2     1     2   101     0  8.6271612207e+01  5.6792933957e+01  6.4394138709e+01  2.1040017324e+02  1.7161992710e+02  7.471690e-14 9.
       -6     2     1     2     0   103 -8.6271612207e+01 -5.6792933957e+01 -3.3848434219e+02  3.9268891403e+02  1.7019020203e+02  3.388321e-13 9.
       24     2     3     0     0     0  1.9514704342e+01  3.2415584394e+01 -2.9896269845e+01  9.2228852418e+01  7.8617939877e+01  1.543204e-13 9.
        5     1     3     0   101     0  6.6756907866e+01  2.4377349562e+01  9.4290408555e+01  1.1817132082e+02  4.8000000000e+00 0. 9.
      -24     2     4     0     0     0 -1.0854403234e+02 -5.0418294542e+01 -1.7298596659e+02  2.2550802680e+02  8.1276774875e+01  9.155190e-14 9.
       -5     1     4     0     0   103  2.2272420128e+01 -6.3746394148e+00 -1.6549837560e+02  1.6718088723e+02  4.8000000000e+00 0. 9.
      -13     1     5     0     0     0  3.0573556907e+01 -1.3310101102e+01  4.9150738326e+00  3.3705641785e+01  1.0566000000e-01  1.384871e+05 9.
       14     1     5     0     0     0 -1.1058852565e+01  4.5725685497e+01 -3.4811343678e+01  5.8523210633e+01  0.0000000000e+00 0. 9.
       11     1     7     0     0     0 -4.5345394202e+01 -5.9615071724e+01 -1.2461633462e+02  1.4539392149e+02  5.1100000000e-04 0. 9.
      -12     1     7     0     0     0 -6.3198638134e+01  9.1967771826e+00 -4.8369631967e+01  8.0114105307e+01  0.0000000000e+00 0. 9.
#pdf   21   21  2.530761e-02  6.747533e-02  1.990802e+02  3.741300e+00  1.351884e+00
</event>
<event>
    12  9999  1.000000e+00  1.710319e+02  7.873642e-03  1.077822e-01
       21    -1     0     0   101   102  0.0000000000e+00  0.0000000000e+00  5.3070114022e+01  5.3070114022e+01  0.0000000000e+00 0. 9.
       21    -1     0     0   102   103  0.0000000000e+00  0.0000000000e+00 -6.3750653772e+02  6.3750653772e+02  0.0000000000e+00 0. 9.
        6     2     1     2   101     0 -3.4455729635e+01 -1.2608434648e+01 -1.5968712580e+02  2.3121042832e+02  1.6313219820e+02  6.029623e-14 9.
       -6     2     1     2     0   103  3.4455729635e+01  1.2608434648e+01 -4.2474929790e+02  4.5936622342e+02  1.7105318244e+02  3.650308e-14 9.
       24     2     3     0     0     0 -4.8156551666e+01 -5.7425622757e+01 -6.8677662559e+01  1.2873089245e+02  7.8982692524e+01  6.691821e-14 9.
        5     1     3     0   101     0  1.3700822031e+01  4.4817188109e+01 -9.1009463236e+01  1.0247953587e+02  4.8000000000e+00 0. 9.
      -24     2     4     0     0     0 -7.9451699290e+00 -3.8804861478e+01 -3.3826241423e+02  3.5007677128e+02  8.1014454933e+01  3.744581e-14 9.
       -5     1     4     0     0   103  4.2400899564e+01  5.1413296126e+01 -8.6486883674e+01  1.0928945214e+02  4.8000000000e+00 0. 9.
       -1     1     5     0     0   104  1.5340552057e+01 -2.1853065659e+01 -4.4758012120e+01  5.2117919807e+01  3.3000000000e-01 0. 9.
        2     1     5     0   104     0 -6.3497103723e+01 -3.5572557098e+01 -2.3919650439e+01  7.6612972640e+01  3.3000000000e-01 0. 9.
       11     1     7     0     0     0 -6.2136504321e-01  2.5461908695e+01 -9.1754665210e+01  9.5224017333e+01  5.1100000000e-04 0. 9.
      -12     1     7     0     0     0 -7.3238048858e+00 -6.4266770174e+01 -2.4650774902e+02  2.5485275394e+02  0.0000000000e+00 0. 9.
#pdf   21   21  8.164633e-03  9.807793e-02  1.672073e+02  9.424212e+00  8.550965e-01
</event>
<event>
    12  9999  1.000000e+00  2.449491e+02  7.906064e-03  1.031971e-01
       21    -1     0     0   101   102  0.0000000000e+00  0.0000000000e+00  9.0890703513e+02  9.0890703513e+02  0.0000000000e+00 0. 9.
       21    -1     0     0   103   101  0.0000000000e+00  0.0000000000e+00 -9.8087716156e+01  9.8087716156e+01  0.0000000000e+00 0. 9.
        6     2     1     2   103     0  1.6933962293e+02 -4.2278260005e+01  1.1817680728e+02  2.7251925276e+02  1.7273571196e+02  1.923625e-13 9.
       -6     2     1     2     0   102 -1.6933962293e+02  4.2278260005e+01  6.9264251170e+02  7.3447549853e+02  1.7098903405e+02  8.569130e-15 9.
       24     2     3     0     0     0  1.7611461104e+02 -1.0290039052e+01  5.5319914291e+01  2.0150393230e+02  8.0133018731e+01  1.637233e-13 9.
        5     1     3     0   103     0 -6.7749881127e+00 -3.1988220953e+01  6.2856892988e+01  7.1015320458e+01  4.8000000000e+00 0. 9.
      -24     2     4     0     0     0 -6.8436383259e+01  8.0509150356e+01  3.1346461613e+02  3.4021418767e+02  7.9500730068e+01  6.144053e-14 9.
       -5     1     4     0     0   102 -1.0090323967e+02 -3.8230890351e+01  3.7917789556e+02  3.9426131085e+02  4.8000000000e+00 0. 9.
       -1     1     5     0     0   104  6.2000202644e+01 -1.3704935141e+01  5.9836199493e+01  8.7248667869e+01  3.3000000000e-01 0. 9.
        2     1     5     0   104     0  1.1411440840e+02  3.4148960887e+00 -4.5162852016e+00  1.1425526444e+02  3.3000000000e-01 0. 9.
        3     1     7     0   105     0 -4.6717008529e+01 -6.0145863274e-01  8.8340703573e+01  9.9935832144e+01  5.0000000000e-01 0. 9.
       -4     1     7     0     0   105 -2.1719374729e+01  8.1110608989e+01  2.2512391256e+02  2.4027835553e+02  1.5000000000e+00 0. 9.
#pdf   21   21  1.398319e-01  1.509042e-02  2.443371e+02  4.863790e-01  5.843446e+00
</event>
<event>
    12  9999  1.000000e+00  1.919346e+02  7.884021e-03  1.062660e-01
       21    -1     0     0   101   102  0.0000000000e+00  0.0000000000e+00  1.0225664532e+03  1.0225664532e+03  0.0000000000e+00 0. 9.
       21    -1     0     0   102   103  0.0000000000e+00  0.0000000000e+00 -3.9660857863e+01  3.9660857863e+01  0.0000000000e+00 0. 9.
        6     2     1     2   101     0  3.4323495674e+01 -8.0987449891e+01  6.5266868991e+02  6.8035730075e+02  1.7079979067e+02  1.594056e-14 9.
       -6     2     1     2     0   103 -3.4323495674e+01  8.0987449891e+01  3.3023690544e+02  3.8187001033e+02  1.7038550901e+02  1.888206e-13 9.
       24     2     3     0     0     0  6.4908596023e+01 -3.7893948630e+01  2.4839320558e+02  2.7261448297e+02  8.3488888887e+01  7.731826e-14 9.
        5     1     3     0   101     0 -3.0585100349e+01 -4.3093501261e+01  4.0427548434e+02  4.0774281778e+02  4.8000000000e+00 0. 9.
      -24     2     4     0     0     0 -6.4793587678e+01  1.0855461047e+02  2.5011352085e+02  2.9169700102e+02  8.0920050882e+01  1.786249e-13 9.
       -5     1     4     0     0   103  3.0470092004e+01 -2.7567160583e+01  8.0123384587e+01  9.0173009305e+01  4.8000000000e+00 0. 9.
       -1     1     5     0     0   104 -2.1494557782e+00 -4.4802775162e+01  1.0388550836e+02  1.1315571823e+02  3.3000000000e-01 0. 9.
        2     1     5     0   104     0  6.7058051801e+01  6.9088265315e+00  1.4450769722e+02  1.5945876474e+02  3.3000000000e-01 0. 9.
        1     1     7     0   105     0  5.5262568794e+00  6.9092684580e+01  1.0911900590e+02  1.2927259929e+02  3.3000000000e-01 0. 9.
       -2     1     7     0     0   105 -7.0319844557e+01  3.9461925894e+01  1.4099451495e+02  1.6242440173e+02  3.3000000000e-01 0. 9.
#pdf   21   21  1.573179e-01  6.101670e-03  1.917506e+02  4.146937e-01  1.168857e+01
</event>
<event>
    12  9999  1.000000e+00  1.759466e+02  7.876190e-03  1.074056e-01
       21    -1     0     0   101   102  0.0000000000e+00  0.0000000000e+00  1.1810827180e+03  1.1810827180e+03  0.0000000000e+00 0. 9.
       21    -1     0     0   103   101  0.0000000000e+00  0.0000000000e+00 -5.3266929106e+01  5.3266929106e+01  0.0000000000e+00 0. 9.
        6     2     1     2   103     0  3.2378836666e+01  2.9894406327e+01  1.2440240039e+02  2.1566550165e+02  1.7056842259e+02  2.618053e-16 9.
       -6     2     1     2     0   102 -3.2378836666e+01 -2.9894406327e+01  1.0034133885e+03  1.0186841455e+03  1.7010848120e+02  2.157933e-13 9.
       24     2     3     0     0     0  1.6588615072e+01  6.5832436426e+01  1.3927865925e+02  1.7341368295e+02  7.7875982671e+01  4.385386e-14 9.
        5     1     3     0   103     0  1.5790221594e+01 -3.5938030100e+01 -1.4876258863e+01  4.2251818697e+01  4.8000000000e+00 0. 9.
      -24     2     4     0     0     0 -2.0436958321e+01  3.3872195674e+01  8.0601000916e+02  8.1083823579e+02  7.9003258422e+01  1.019175e-15 9.
       -5     1     4     0     0   102 -1.1941878344e+01 -6.3766602000e+01  1.9740337935e+02  2.0784590967e+02  4.8000000000e+00 0. 9.
      -15     1     5     0     0     0  3.8347366991e+01  1.4836990127e+01  9.1087478113e+01  9.9953702230e+01  1.7768200000e+00  1.719513e-01 9.
       16     1     5     0     0     0 -2.1758751920e+01  5.0995446300e+01  4.8191181138e+01  7.3459980723e+01  0.0000000000e+00 0. 9.
        3     1     7     0   104     0 -4.8711300200e+01  3.3082075176e+01  6.0161077193e+02  6.0448571973e+02  5.0000000000e-01 0. 9.
       -4     1     7     0     0   104  2.8274341879e+01  7.9012049808e-01  2.0439923724e+02  2.0635251605e+02  1.5000000000e+00 0. 9.
#pdf   21   21  1.817050e-01  8.194912e-03  1.757241e+02  3.267480e-01  9.410778e+00
</event>
<event>
    12  9999  1.000000e+00  1.881516e+02  7.882227e-03  1.065247e-01
       21    -1     0     0   101   102  0.0000000000e+00  0.0000000000e+00  2.2490925624e+01  2.2490925624e+01  0.0000000000e+00 0. 9.
       21    -1     0     0   103   101  0.0000000000e+00  0.0000000000e+00 -2.0287585352e+03  2.0287585352e+03  0.0000000000e+00 0. 9.
        6     2     1     2   103     0  6.1654428007e+01  4.7325638672e+01 -1.4914906165e+03  1.5033962931e+03  1.7209058735e+02  1.134321e-13 9.
       -6     2     1     2     0   102 -6.1654428007e+01 -4.7325638672e+01 -5.1477699302e+02  5.4785316772e+02  1.7060702294e+02  1.136110e-13 9.
       24     2     3     0     0     0  9.0416865454e+01  2.3738616980e+01 -6.8654402247e+02  6.9757640955e+02  8.0817206509e+01  9.595411e-14 9.
        5     1     3     0   103     0 -2.8762437448e+01  2.3587021692e+01 -8.0494659406e+02  8.0581988353e+02  4.8000000000e+00 0. 9.
      -24     2     4     0     0     0  1.6440917055e+01 -6.9143671117e+01 -2.9287382244e+02  3.1155046657e+02  7.8977631901e+01  3.499904e-14 9.
       -5     1     4     0     0   102 -7.8095345062e+01  2.1818032445e+01 -2.2190317057e+02  2.3630270115e+02  4.8000000000e+00 0. 9.
       -3     1     5     0     0   104  5.7202455478e+01  5.0903774319e+01 -3.4828370158e+02  3.5660216199e+02  5.0000000000e-01 0. 9.
        4     1     5     0   104     0  3.3214409976e+01 -2.7165157339e+01 -3.3826032090e+02  3.4097424756e+02  1.5000000000e+00 0. 9.
       13     1     7     0     0     0  4.0282189373e+01 -1.6156556127e+01 -1.7265676948e+02  1.7802825702e+02  1.0566000000e-01  6.256082e+05 9.
      -14     1     7     0     0     0 -2.3841272318e+01 -5.2987114990e+01 -1.2021705296e+02  1.3352220955e+02  0.0000000000e+00 0. 9.
#pdf   21   21  3.460142e-03  3.121167e-01  1.874773e+02  1.725035e+01  9.135945e-02
</event>
<event>
    12  9999  1.000000e+00  4.886456e+02  7.969154e-03  9.540663e-02
       -2    -1     0     0     0   101  0.0000000000e+00  0.0000000000e+00  1.7485235289e+02  1.7485235289e+02  0.0000000000e+00 0. 9.
        2    -1     0     0   102     0  0.0000000000e+00  0.0000000000e+00 -1.7650011603e+03  1.7650011603e+03  0.0000000000e+00 0. 9.
       -6     2     1     2     0   101  3.0656988101e+02 -3.3937322850e+02 -1.2570754038e+03  1.3488796072e+03  1.7343109217e+02  4.054742e-13 9.
        6     2     1     2   102     0 -3.0656988101e+02  3.3937322850e+02 -3.3307340360e+02  5.9097390597e+02  1.7074245280e+02  3.521446e-13 9.
      -24     2     3     0     0     0  3.1528769761e+02 -3.3461487961e+02 -1.2471395893e+03  1.3340336441e+03  1.1364487880e+02  3.985664e-14 9.
       -5     1     3     0     0   101 -8.7178166010e+00 -4.7583488907e+00 -9.9358144692e+00  1.4845963075e+01  4.8000000000e+00 0. 9.
       24     2     4     0     0     0 -1.5749973975e+02  1.6403624966e+02 -9.3541675529e+01  2.5876395441e+02  8.0589576356e+01  1.017069e-13 9.
        5     1     4     0   102     0 -1.4907014127e+02  1.7533697884e+02 -2.3953172807e+02  3.3220995156e+02  4.8000000000e+00 0. 9.
        3     1     5     0   103     0  2.0708063123e+01 -2.5415185261e+01 -3.1131127235e+01  4.5212305881e+01  5.0000000000e-01 0. 9.
       -4     1     5     0     0   103  2.9457963449e+02 -3.0919969435e+02 -1.2160084621e+03  1.2888213382e+03  1.5000000000e+00 0. 9.
       -3     1     7     0     0   104  6.3738866928e+00 -1.7622901261e+00 -8.1202282001e+00  1.0484283671e+01  5.0000000000e-01 0. 9.
        4     1     7     0   104     0 -1.6387362644e+02  1.6579853979e+02 -8.5421447329e+01  2.4827967074e+02  1.5000000000e+00 0. 9.
#pdf   -2    2  2.690036e-02  2.715386e-01  4.881724e+02  2.722239e-01  3.198076e-01
</event>
<event>
    12  9999  1.000000e+00  1.760154e+02  7.876225e-03  1.074005e-01
       21    -1     0     0   101   102  0.0000000000e+00  0.0000000000e+00  1.1420703609e+02  1.1420703609e+02  0.0000000000e+00 0. 9.
       21    -1     0     0   103   101  0.0000000000e+00  0.0000000000e+00 -2.8636240249e+02  2.8636240249e+02  0.0000000000e+00 0. 9.
        6     2     1     2   103     0  3.2359257664e+01 -2.7491951036e+01 -4.0173792334e+01  1.8068801136e+02  1.7097162025e+02  2.289646e-13 9.
       -6     2     1     2     0   102 -3.2359257664e+01  2.7491951036e+01 -1.3198157406e+02  2.1988142722e+02  1.7066275872e+02  1.872716e-14 9.
       24     2     3     0     0     0  7.4994138394e+01  3.5147716799e+00 -7.2741393432e+00  1.1836163592e+02  9.1214523745e+01  4.066081e-14 9.
        5     1     3     0   103     0 -4.2634880729e+01 -3.1006722716e+01 -3.2899652990e+01  6.2326375438e+01  4.8000000000e+00 0. 9.
      -24     2     4     0     0     0  3.9887790917e+01  3.7953398702e+01 -1.0523421847e+02  1.4198701826e+02  7.7811157810e+01  1.450621e-13 9.
       -5     1     4     0     0   102 -7.2247048582e+01 -1.0461447666e+01 -2.6747355594e+01  7.7894408960e+01  4.8000000000e+00 0. 9.
       -3     1     5     0     0   104  1.4576817883e+01 -2.0447717995e+01  3.3312247449e+01  4.1719882800e+01  5.0000000000e-01 0. 9.
        4     1     5     0   104     0  6.0417320511e+01  2.3962489674e+01 -4.0586386792e+01  7.6641753124e+01  1.5000000000e+00 0. 9.
       13     1     7     0     0     0  2.6907735982e+01  2.1193416337e+00  3.0768429089e+00  2.7166081627e+01  1.0566000000e-01  1.668688e+06 9.
      -14     1     7     0     0     0  1.2980054935e+01  3.5834057068e+01 -1.0831106138e+02  1.1482093663e+02  0.0000000000e+00 0. 9.
#pdf   21   21  1.757031e-02  4.405575e-02  1.758656e+02  5.162840e+00  2.191228e+00
</event>
<event>
    12  9999  1.000000e+00  3.139360e+02  7.928618e-03  1.002537e-01
       -2    -1     0     0     0   101  0.0000000000e+00  0.0000000000e+00  2.4325627603e+02  2.4325627603e+02  0.0000000000e+00 0. 9.
        2    -1     0     0   102     0  0.0000000000e+00  0.0000000000e+00 -4.2404829890e+02  4.2404829890e+02  0.0000000000e+00 0. 9.
       -6     2     1     2     0   101  2.1850330430e+02 -1.3893139546e+02 -1.6146895124e+02  3.5527123525e+02  1.8193350914e+02  7.746586e-14 9.
        6     2     1     2   102     0 -2.1850330430e+02  1.3893139546e+02 -1.9323071638e+01  3.1203333968e+02  1.7304854041e+02  2.102799e-14 9.
      -24     2     3     0     0     0  8.6558943539e+01 -5.1562211419e+01 -1.4901309265e+02  1.9646041361e+02  7.8997974541e+01  9.727186e-14 9.
       -5     1     3     0     0   101  1.3194436076e+02 -8.7369184041e+01 -1.2455858591e+01  1.5881082164e+02  4.8000000000e+00 0. 9.
       24     2     4     0     0     0 -6.6507248125e+01  7.5184604415e+01 -5.7416212043e+01  1.4279805433e+02  8.3777825949e+01  3.664577e-14 9.
        5     1     4     0   102     0 -1.5199605618e+02  6.3746791046e+01  3.8093140405e+01  1.6923528535e+02  4.8000000000e+00 0. 9.
        3     1     5     0   103     0  6.8969377856e+01 -3.2579953269e+00 -5.1230428837e+01  8.5977883518e+01  5.0000000000e-01 0. 9.
       -4     1     5     0     0   103  1.7589565683e+01 -4.8304216092e+01 -9.7782663811e+01  1.1048253009e+02  1.5000000000e+00 0. 9.
       -3     1     7     0     0   104 -3.1375555722e+01  6.8384884435e+01 -1.3398503218e-01  7.5240852388e+01  5.0000000000e-01 0. 9.
        4     1     7     0   104     0 -3.5131692404e+01  6.7997199802e+00 -5.7282227011e+01  6.7557201942e+01  1.5000000000e+00 0. 9.
#pdf   -2    2  3.742404e-02  6.523820e-02  3.114345e+02  2.046975e-01  6.066622e-01
</event>
<event>
    12  9999  1.000000e+00  2.033101e+02  7.889214e-03  1.055249e-01
       21    -1     0     0   101   102  0.0000000000e+00  0.0000000000e+00  3.9189240793e+02  3.9189240793e+02  0.0000000000e+00 0. 9.
       21    -1     0     0   103   101  0.0000000000e+00  0.0000000000e+00 -1.1062404644e+02  1.1062404644e+02  0.0000000000e+00 0. 9.
        6     2     1     2   103     0  1.5985916906e+01 -1.1251926567e+02  8.6072257670e+01  2.2027631754e+02  1.6791988519e+02  1.375198e-13 9.
       -6     2     1     2     0   102 -1.5985916906e+01  1.1251926567e+02  1.9519610382e+02  2.8224013683e+02  1.6923900616e+02  3.828131e-14 9.
       24     2     3     0     0     0  5.8853836731e+01 -6.7858367174e+01  7.6237335835e+00  1.2022900205e+02  7.9550986966e+01  3.826580e-14 9.
        5     1     3     0   103     0 -4.2867919825e+01 -4.4660898494e+01  7.8448524087e+01  1.0004731549e+02  4.8000000000e+00 0. 9.
      -24     2     4     0     0     0  5.5119762168e+01  7.2086374204e+01  1.2867115103e+02  1.7669656454e+02  8.0192127329e+01  2.418182e-14 9.
       -5     1     4     0     0   102 -7.1105679074e+01  4.0432891464e+01  6.6524952789e+01  1.0554357229e+02  4.8000000000e+00 0. 9.
       -1     1     5     0     0   104 -6.6003668352e+00 -1.7678450282e+01  2.9390452707e+01  3.4928499210e+01  3.3000000000e-01 0. 9.
        2     1     5     0   104     0  6.5454203566e+01 -5.0179916892e+01 -2.1766719124e+01  8.5300502842e+01  3.3000000000e-01 0. 9.
       11     1     7     0     0     0 -9.4571453233e+00  9.0107848657e+00 -6.1559052142e+00  1.4440464356e+01  5.1100000000e-04 0. 9.
      -12     1     7     0     0     0  6.4576907491e+01  6.3075589338e+01  1.3482705624e+02  1.6225610018e+02  0.0000000000e+00 0. 9.
#pdf   21   21  6.029114e-02  1.701908e-02  2.027640e+02  1.540359e+00  5.295496e+00
</event>
<event>
    12  9999  1.000000e+00  1.886323e+02  7.882457e-03  1.064914e-01
       21    -1     0     0   101   102  0.0000000000e+00  0.0000000000e+00  1.0394763302e+03  1.0394763302e+03  0.0000000000e+00 0. 9.
       21    -1     0     0   102   103  0.0000000000e+00  0.0000000000e+00 -3.4851306383e+01  3.4851306383e+01  0.0000000000e+00 0. 9.
        6     2     1     2   101     0 -9.8323524655e+00  7.9004230379e+01  5.7329742241e+02  6.0345129296e+02  1.7071960887e+02  7.207815e-14 9.
       -6     2     1     2     0   103  9.8323524655e+00 -7.9004230379e+01  4.3132760138e+02  4.7087634361e+02  1.7129707435e+02  2.675548e-14 9.
       24     2     3     0     0     0 -4.8201801661e+01 -6.8754202895e+00  2.5425787078e+02  2.7080011750e+02  7.9466682915e+01  1.512324e-13 9.
        5     1     3     0   101     0  3.8369449195e+01  8.5879650668e+01  3.1903955163e+02  3.3265117546e+02  4.8000000000e+00 0. 9.
      -24     2     4     0     0     0  2.7962926824e+01 -7.9768458617e+01  4.3621349531e+02  4.5148011380e+02  8.0044658736e+01  2.180899e-14 9.
       -5     1     4     0     0   103 -1.8130574358e+01  7.6422823853e-01 -4.8858939302e+00  1.9396229811e+01  4.8000000000e+00 0. 9.
      -11     1     5     0     0     0 -2.4493541988e+01 -3.6773659740e+00  1.2284729490e+01  2.7647263852e+01  5.1100000000e-04 0. 9.
       12     1     5     0     0     0 -2.3708259673e+01 -3.1980543155e+00  2.4197314129e+02  2.4315285364e+02  0.0000000000e+00 0. 9.
        1     1     7     0   104     0 -2.7748159705e+01 -3.2857580967e+01  1.4111518275e+02  1.4752350558e+02  3.3000000000e-01 0. 9.
       -4     1     7     0     0   104  5.5711086529e+01 -4.6910877651e+01  2.9509831256e+02  3.0395660822e+02  1.5000000000e+00 0. 9.
#pdf   21   21  1.599194e-01  5.361739e-03  1.883707e+02  4.044264e-01  1.279863e+01
</event>
<event>
    12  9999  1.000000e+00  4.615693e+02  7.963908e-03  9.600433e-02
       21    -1     0     0   101   102  0.0000000000e+00  0.0000000000e+00  2.3925662840e+02  2.3925662840e+02  0.0000000000e+00 0. 9.
       21    -1     0     0   103   101  0.0000000000e+00  0.0000000000e+00 -9.0577407547e+02  9.0577407547e+02  0.0000000000e+00 0. 9.
        6     2     1     2   103     0  3.6525597929e+02  2.2403471101e+02 -4.0756755802e+02  6.1559267379e+02  1.7099574124e+02  4.997258e-14 9.
       -6     2     1     2     0   102 -3.6525597929e+02 -2.2403471101e+02 -2.5894988905e+02  5.2943803008e+02  1.7218043007e+02  1.150697e-13 9.
       24     2     3     0     0     0  2.5866760503e+02  2.2874593887e+02 -3.1777332110e+02  4.7606016080e+02  8.0123396445e+01  9.819056e-14 9.
        5     1     3     0   103     0  1.0658837427e+02 -4.7112278569e+00 -8.9794236920e+01  1.3953251299e+02  4.8000000000e+00 0. 9.
      -24     2     4     0     0     0 -1.7018956176e+02 -4.4857055952e+01 -7.9427358019e+01  2.0942722015e+02  8.1082753620e+01  5.904350e-14 9.
       -5     1     4     0     0   102 -1.9506641753e+02 -1.7917765506e+02 -1.7952253104e+02  3.2001080993e+02  4.8000000000e+00 0. 9.
      -11     1     5     0     0     0  1.4396331580e+02  8.3962663935e+01 -1.8225190255e+02  2.4696340056e+02  5.1100000000e-04 0. 9.
       12     1     5     0     0     0  1.1470428923e+02  1.4478327494e+02 -1.3552141855e+02  2.2909676024e+02  0.0000000000e+00 0. 9.
        3     1     7     0   104     0 -5.1095223177e+01 -8.6906255759e+00 -6.6457018459e+01  8.4279499921e+01  5.0000000000e-01 0. 9.
       -4     1     7     0     0   104 -1.1909433859e+02 -3.6166430376e+01 -1.2970339560e+01  1.2514772023e+02  1.5000000000e+00 0. 9.
#pdf   21   21  3.680871e-02  1.393499e-01  4.613491e+02  2.509855e+00  4.509292e-01
</event>
<event>
    12  9999  1.000000e+00  1.721249e+02  7.874215e-03  1.076973e-01
       21    -1     0     0   101   102  0.0000000000e+00  0.0000000000e+00  1.0829312829e+02  1.0829312829e+02  0.0000000000e+00 0. 9.
       21    -1     0     0   103   101  0.0000000000e+00  0.0000000000e+00 -4.6061969683e+02  4.6061969683e+02  0.0000000000e+00 0. 9.
        6     2     1     2   103     0 -1.2876748968e+01 -2.0311065804e+01 -3.5756268772e+02  3.9693251125e+02  1.7066339027e+02  8.002453e-14 9.
       -6     2     1     2     0   102  1.2876748968e+01  2.0311065804e+01  5.2361191806e+00  1.7198031387e+02  1.7021005069e+02  7.496881e-14 9.
       24     2     3     0     0     0 -1.8453103972e+01  5.2095626836e+00 -7.2042723351e+01  1.1017985081e+02  8.1128225348e+01  4.166467e-14 9.
        5     1     3     0   103     0  5.5763550037e+00 -2.5520628487e+01 -2.8551996437e+02  2.8675266043e+02  4.8000000000e+00 0. 9.
      -24     2     4     0     0     0 -3.5830743583e+01  3.4576356294e+01  3.9451468518e+01  1.1058285078e+02  9.0513987413e+01  4.023102e-13 9.
       -5     1     4     0     0   102  4.8707492551e+01 -1.4265290490e+01 -3.4215349338e+01  6.1397463088e+01  4.8000000000e+00 0. 9.
      -15     1     5     0     0     0  1.4686515815e+01 -4.8509163999e+00 -7.3875684088e+01  7.5498337236e+01  1.7768200000e+00  1.781675e-01 9.
       16     1     5     0     0     0 -3.3139619787e+01  1.0060479083e+01  1.8329607372e+00  3.4681513578e+01  0.0000000000e+00 0. 9.
        1     1     7     0   104     0 -1.2558994547e+01  6.4025102925e+01  3.0350870563e+01  7.1959894333e+01  3.3000000000e-01 0. 9.
       -2     1     7     0     0   104 -2.3271749036e+01 -2.9448746631e+01  9.1005979558e+00  3.8622956444e+01  3.3000000000e-01 0. 9.
#pdf   21   21  1.666048e-02  7.086457e-02  1.719006e+02  5.398325e+00  1.289674e+00
</event>
<event>
    12  9999  1.000000e+00  2.248891e+02  7.898328e-03  1.042515e-01
       21    -1     0     0   101   102  0.0000000000e+00  0.0000000000e+00  7.3943881800e+02  7.3943881800e+02  0.0000000000e+00 0. 9.
       21    -1     0     0   103   101  0.0000000000e+00  0.0000000000e+00 -1.4102770905e+02  1.4102770905e+02  0.0000000000e+00 0. 9.
        6     2     1     2   103     0  1.2350811502e+02 -7.8357824113e+01 -1.6541763472e+01  2.2577984305e+02  1.7119785195e+02  8.967324e-14 9.
       -6     2     1     2     0   102 -1.2350811502e+02  7.8357824113e+01  6.1495287243e+02  6.5468668400e+02  1.7045062575e+02  1.088363e-13 9.
       24     2     3     0     0     0 -1.9370037677e+00 -1.0774293752e+01  1.2531496198e+00  8.2100650625e+01  8.1357907174e+01  2.865501e-14 9.
        5     1     3     0   103     0  1.2544511879e+02 -6.7583530361e+01 -1.7794913092e+01  1.4367919243e+02  4.8000000000e+00 0. 9.
      -24     2     4     0     0     0 -4.9339125959e+01  1.0817174994e+02  4.1317999018e+02  4.3760318595e+02  8.1506853930e+01  8.814957e-14 9.
       -5     1     4     0     0   102 -7.4168989064e+01 -2.9813925824e+01  2.0177288225e+02  2.1708349805e+02  4.8000000000e+00 0. 9.
       -1     1     5     0     0   104  2.2690826086e+01  2.5129624000e+01  1.4139989399e+01  3.6693593324e+01  3.3000000000e-01 0. 9.
        2     1     5     0   104     0 -2.4627829854e+01 -3.5903917752e+01 -1.2886839779e+01  4.5407057301e+01  3.3000000000e-01 0. 9.
        3     1     7     0   105     0 -6.5197463730e+01  6.8656440928e+01  3.3986999218e+02  3.5281195805e+02  5.0000000000e-01 0. 9.
       -4     1     7     0     0   105  1.5858337771e+01  3.9515309008e+01  7.3309997994e+01  8.4791227900e+01  1.5000000000e+00 0. 9.
#pdf   21   21  1.137598e-01  2.169657e-02  2.246055e+02  6.730594e-01  4.283466e+00
</event>
<event>
    12  9999  1.000000e+00  2.654048e+02  7.913340e-03  1.022267e-01
       21    -1     0     0   101   102  0.0000000000e+00  0.0000000000e+00  3.0972636166e+02  3.0972636166e+02  0.0000000000e+00 0. 9.
       21    -1     0     0   102   103  0.0000000000e+00  0.0000000000e+00 -2.3130188559e+02  2.3130188559e+02  0.0000000000e+00 0. 9.
        6     2     1     2   101     0 -1.0304271137e+02 -1.7473544056e+02  4.2124034131e+00  2.6556934060e+02  1.7134484460e+02  1.198986e-13 9.
       -6     2     1     2     0   103  1.0304271137e+02  1.7473544056e+02  7.4212072664e+01  2.7545890665e+02  1.7093830166e+02  1.076640e-14 9.
       24     2     3     0     0     0 -2.3477708384e+01 -1.3533232502e+02 -4.0991578018e+01  1.6582148272e+02  8.3369141029e+01  4.202876e-14 9.
        5     1     3     0   101     0 -7.9565002986e+01 -3.9403115533e+01  4.5203981431e+01  9.9747857877e+01  4.8000000000e+00 0. 9.
      -24     2     4     0     0     0  8.8035156249e+01  3.7022072759e+01  4.2035595104e+01  1.3316145731e+02  8.2729437630e+01  7.139330e-15 9.
       -5     1     4     0     0   103  1.5007555121e+01  1.3771336780e+02  3.2176477561e+01  1.4229744934e+02  4.8000000000e+00 0. 9.
       -3     1     5     0     0   104 -1.0384946825e+01 -6.7367959950e+01  2.2603375919e+01  7.1815400517e+01  5.0000000000e-01 0. 9.
        4     1     5     0   104     0 -1.3092761558e+01 -6.7964365074e+01 -6.3594953937e+01  9.4006082204e+01  1.5000000000e+00 0. 9.
        1     1     7     0   105     0  5.5440130611e+01  4.9099315452e+01  5.8806105979e+01  9.4565415773e+01  3.3000000000e-01 0. 9.
       -2     1     7     0     0   105  3.2595025638e+01 -1.2077242694e+01 -1.6770510875e+01  3.8596041539e+01  3.3000000000e-01 0. 9.
#pdf   21   21  4.765021e-02  3.558491e-02  2.652738e+02  1.967324e+00  2.668820e+00
</event>
<event>
    12  9999  1.000000e+00  3.162255e+02  7.929281e-03  1.001701e-01
       -2    -1     0     0     0   101  0.0000000000e+00  0.0000000000e+00  5.7081164951e+01  5.7081164951e+01  0.0000000000e+00 0. 9.
        2    -1     0     0   102     0  0.0000000000e+00  0.0000000000e+00 -2.2729782822e+03  2.2729782822e+03  0.0000000000e+00 0. 9.
       -6     2     1     2     0   101  1.8780273665e+02  1.8840803389e+02 -1.6661190674e+03  1.6958862645e+03  1.7120169515e+02  1.136836e-13 9.
        6     2     1     2   102     0 -1.8780273665e+02 -1.8840803389e+02 -5.4977804986e+02  6.3417318261e+02  1.7074034761e+02  3.421282e-13 9.
      -24     2     3     0     0     0  1.4096369099e+02  1.3068796316e+02 -8.0251794902e+02  8.2907865358e+02  7.9914012801e+01  1.273463e-13 9.
       -5     1     3     0     0   101  4.6839045656e+01  5.7720070733e+01 -8.6360111837e+02  8.6680761096e+02  4.8000000000e+00 0. 9.
       24     2     4     0     0     0 -2.3111712004e+01 -1.6892691170e+01 -9.3143482367e+01  1.1931512973e+02  6.8854031307e+01  8.590311e-15 9.
        5     1     4     0   102     0 -1.6469102464e+02 -1.7151534272e+02 -4.5663456749e+02  5.1485805288e+02  4.8000000000e+00 0. 9.
        1     1     5     0   103     0  4.2963025815e+01  8.5445427736e+01 -2.9161282427e+02  3.0689557000e+02  3.3000000000e-01 0. 9.
       -2     1     5     0     0   103  9.8000665179e+01  4.5242535423e+01 -5.1090512475e+02  5.2218308358e+02  3.3000000000e-01 0. 9.
       -3     1     7     0     0   104 -3.2118647216e+01 -3.8695107323e+01 -5.5791748542e+01  7.5112502522e+01  5.0000000000e-01 0. 9.
        4     1     7     0   104     0  9.0069352112e+00  2.1802416153e+01 -3.7351733825e+01  4.4202627204e+01  1.5000000000e+00 0. 9.
#pdf   -2    2  8.781718e-03  3.496890e-01  3.161008e+02  5.771235e-01  2.294856e-01
</event>
<event>
    12  9999  1.000000e+00  1.860903e+02  7.881235e-03  1.066684e-01
       21    -1     0     0   101   102  0.0000000000e+00  0.0000000000e+00  8.6419463406e+02  8.6419463406e+02  0.0000000000e+00 0. 9.
       21    -1     0     0   102   103  0.0000000000e+00  0.0000000000e+00 -4.0108946705e+01  4.0108946705e+01  0.0000000000e+00 0. 9.
        6     2     1     2   101     0 -1.0522585213e+01 -7.5029285005e+01  4.2652074318e+02  4.6547268590e+02  1.7030783467e+02  2.358297e-13 9.
       -6     2     1     2     0   103  1.0522585213e+01  7.5029285005e+01  3.9756494418e+02  4.3883089487e+02  1.6963063120e+02  2.554783e-13 9.
       24     2     3     0     0     0 -2.0896528146e+01 -6.4580312255e+01  1.1346080577e+02  1.5202992537e+02  7.5049731113e+01  1.330470e-13 9.
        5     1     3     0   101     0  1.0373942933e+01 -1.0448972750e+01  3.1305993741e+02  3.1344276054e+02  4.8000000000e+00 0. 9.
      -24     2     4     0     0     0  5.4315987334e+01  6.3870414118e+01  1.6366667382e+02  2.0055831284e+02  8.0044990164e+01  1.197130e-13 9.
       -5     1     4     0     0   103 -4.3793402121e+01  1.1158870887e+01  2.3389827036e+02  2.3827258203e+02  4.8000000000e+00 0. 9.
       -1     1     5     0     0   104 -1.7058388414e+01 -7.4209951277e+01  1.1821826512e+02  1.4061924687e+02  3.3000000000e-01 0. 9.
        2     1     5     0   104     0 -3.8381397317e+00  9.6296390217e+00 -4.7574593421e+00  1.1410678493e+01  3.3000000000e-01 0. 9.
        1     1     7     0   105     0  2.7646752653e+01  4.7562765015e+01  2.8764208306e+01  6.2080980401e+01  3.3000000000e-01 0. 9.
       -2     1     7     0     0   105  2.6669234680e+01  1.6307649104e+01  1.3490246551e+02  1.3847733244e+02  3.3000000000e-01 0. 9.
#pdf   21   21  1.329530e-01  6.170607e-03  1.857812e+02  5.455897e-01  1.158315e+01
</event>
<event>
    12  9999  1.000000e+00  1.766356e+02  7.876541e-03  1.073539e-01
       21    -1     0     0   101   102  0.0000000000e+00  0.0000000000e+00  1.9134891803e+02  1.9134891803e+02  0.0000000000e+00 0. 9.
       21    -1     0     0   103   101  0.0000000000e+00  0.0000000000e+00 -2.2443515888e+02  2.2443515888e+02  0.0000000000e+00 0. 9.
        6     2     1     2   103     0  3.5996120667e+01 -1.0693180472e+01 -1.2533185269e+02  2.1749217577e+02  1.7373746980e+02  1.286423e-13 9.
       -6     2     1     2     0   102 -3.5996120667e+01  1.0693180472e+01  9.2245611839e+01  1.9829190114e+02  1.7146533277e+02  4.389478e-14 9.
       24     2     3     0     0     0  9.1510446744e+01  2.1465207370e+00 -8.7997205065e+01  1.4920151580e+02  7.8350589039e+01  1.856996e-13 9.
        5     1     3     0   103     0 -5.5514326077e+01 -1.2839701209e+01 -3.7334647622e+01  6.8290659976e+01  4.8000000000e+00 0. 9.
      -24     2     4     0     0     0 -1.2623686540e+01  2.5631715936e+01 -1.7607643314e+01  8.4889043212e+01  7.7972932680e+01  2.343944e-14 9.
       -5     1     4     0     0   102 -2.3372434127e+01 -1.4938535464e+01  1.0985325515e+02  1.1340285793e+02  4.8000000000e+00 0. 9.
      -13     1     5     0     0     0  8.8090928811e+01 -1.1758936352e+01 -3.7060187272e+01  9.6289942193e+01  1.0566000000e-01  7.011347e+04 9.
       14     1     5     0     0     0  3.4195179331e+00  1.3905457089e+01 -5.0937017793e+01  5.2911573606e+01  0.0000000000e+00 0. 9.
        3     1     7     0   104     0  1.9866182386e+01  4.2119177381e+01 -1.0392156319e+01  4.7717263320e+01  5.0000000000e-01 0. 9.
       -4     1     7     0     0   104 -3.2489868926e+01 -1.6487461445e+01 -7.2154869957e+00  3.7171779892e+01  1.5000000000e+00 0. 9.
#pdf   21   21  2.943830e-02  3.452849e-02  1.755290e+02  3.264897e+00  2.802137e+00
</event>
<event>
    12  9999  1.000000e+00  2.112475e+02  7.892671e-03  1.050378e-01
       21    -1     0     0   101   102  0.0000000000e+00  0.0000000000e+00  9.0482399817e+01  9.0482399817e+01  0.0000000000e+00 0. 9.
       21    -1     0     0   102   103  0.0000000000e+00  0.0000000000e+00 -7.5011481371e+02  7.5011481371e+02  0.0000000000e+00 0. 9.
        6     2     1     2   101     0 -4.9374578952e+00 -1.3190397030e+02 -9.3791041507e+01  2.3966854629e+02  1.7669526520e+02  4.966071e-13 9.
       -6     2     1     2     0   103  4.9374578952e+00  1.3190397030e+02 -5.6584137239e+02  6.0092866724e+02  1.5334851983e+02  4.146880e-14 9.
       24     2     3     0     0     0 -3.0279820071e+01 -2.6448703643e+01  9.0476413631e+00  9.0129644061e+01  8.0156668446e+01  2.622043e-13 9.
        5     1     3     0   101     0  2.5342362176e+01 -1.0545526665e+02 -1.0283868287e+02  1.4953890223e+02  4.8000000000e+00 0. 9.
      -24     2     4     0     0     0  4.1652393429e+01  3.2120862744e+01 -2.3032118883e+02  2.4893223456e+02  7.8439375808e+01  1.192279e-13 9.
       -5     1     4     0     0   103 -3.6714935534e+01  9.9783107552e+01 -3.3552018356e+02  3.5199643268e+02  4.8000000000e+00 0. 9.
       -1     1     5     0     0   104 -5.2662810500e+01 -1.0028775427e+01 -1.2426741184e+01  5.5031634019e+01  3.3000000000e-01 0. 9.
        2     1     5     0   104     0  2.2382990428e+01 -1.6419928216e+01  2.1474382547e+01  3.5098010042e+01  3.3000000000e-01 0. 9.
        3     1     7     0   105     0  7.0566914172e+00 -2.4699037865e+01 -4.2381604522e+01  4.9560970199e+01  5.0000000000e-01 0. 9.
       -4     1     7     0     0   105  3.4595702011e+01  5.6819900609e+01 -1.8793958431e+02  1.9937126436e+02  1.5000000000e+00 0. 9.
#pdf   21   21  1.392037e-02  1.154023e-01  2.023334e+02  6.253122e+00  6.672375e-01
</event>
<event>
    12  9999  1.000000e+00  1.866008e+02  7.881481e-03  1.066326e-01
       21    -1     0     0   101   102  0.0000000000e+00  0.0000000000e+00  1.3359161783e+02  1.3359161783e+02  0.0000000000e+00 0. 9.
       21    -1     0     0   103   101  0.0000000000e+00  0.0000000000e+00 -3.1831129475e+03  3.1831129475e+03  0.0000000000e+00 0. 9.
        6     2     1     2   103     0 -6.3445551786e+01  3.8185350106e+01 -3.1136098269e+03  3.1191823229e+03  1.7102266056e+02  2.455821e-13 9.
       -6     2     1     2     0   102  6.3445551786e+01 -3.8185350106e+01  6.4088497252e+01  1.9752224239e+02  1.7153495782e+02  1.366841e-14 9.
       24     2     3     0     0     0 -3.5970067953e+01 -3.4677063186e+01 -2.2064167676e+03  2.2086406597e+03  8.5570246854e+01  1.216151e-13 9.
        5     1     3     0   103     0 -2.7475483833e+01  7.2862413292e+01 -9.0719305935e+02  9.1054166320e+02  4.8000000000e+00 0. 9.
      -24     2     4     0     0     0  9.2573173290e+01  9.9762406236e+00  2.4654706425e+01  1.2863087126e+02  8.5256839628e+01  4.861235e-14 9.
       -5     1     4     0     0   102 -2.9127621504e+01 -4.8161590729e+01  3.9433790827e+01  6.8891371122e+01  4.8000000000e+00 0. 9.
      -11     1     5     0     0     0 -5.9132616426e+00 -5.8358135460e+01 -1.1005050472e+03  1.1020671475e+03  5.1100000000e-04 0. 9.
       12     1     5     0     0     0 -3.0056806311e+01  2.3681072274e+01 -1.1059117204e+03  1.1065735123e+03  0.0000000000e+00 0. 9.
        1     1     7     0   104     0  4.9661486588e+01 -3.6931445993e+01  5.0216557979e+00  6.2092840813e+01  3.3000000000e-01 0. 9.
       -2     1     7     0     0   104  4.2911686702e+01  4.6907686617e+01  1.9633050627e+01  6.6538030451e+01  3.3000000000e-01 0. 9.
#pdf   21   21  2.055256e-02  4.897097e-01  1.863658e+02  4.511258e+00  1.107581e-02
</event>
<event>
    12  9999  1.000000e+00  1.904144e+02  7.883304e-03  1.063692e-01
       21    -1     0     0   101   102  0.0000000000e+00  0.0000000000e+00  3.2839789299e+02  3.2839789299e+02  0.0000000000e+00 0. 9.
       21    -1     0     0   102   103  0.0000000000e+00  0.0000000000e+00 -2.2686813878e+02  2.2686813878e+02  0.0000000000e+00 0. 9.
        6     2     1     2   101     0 -3.7851180477e+01 -7.4608519522e+01  2.4960921183e+02  3.1360965925e+02  1.7043214690e+02  9.695701e-14 9.
       -6     2     1     2     0   103  3.7851180477e+01  7.4608519522e+01 -1.4807945762e+02  2.4165637251e+02  1.7167158634e+02  7.680966e-13 9.
       24     2     3     0     0     0 -4.6064055972e+01 -8.9590555270e+01  1.0562564742e+02  1.6853650688e+02  8.4258007997e+01  4.285990e-14 9.
        5     1     3     0   101     0  8.2128754953e+00  1.4982035748e+01  1.4398356441e+02  1.4507315237e+02  4.8000000000e+00 0. 9.
      -24     2     4     0     0     0 -3.6312588920e+01  7.6999529209e+01 -8.6518435402e+01  1.4512253867e+02  7.9546086978e+01  7.937519e-15 9.
       -5     1     4     0     0   103  7.4163769397e+01 -2.3910096871e+00 -6.1561022220e+01  9.6533833837e+01  4.8000000000e+00 0. 9.
      -11     1     5     0     0     0 -5.4515587747e+01 -1.7846466266e+01  3.3370626914e+01  6.6362974666e+01  5.1100000000e-04 0. 9.
       12     1     5     0     0     0  8.4515317755e+00 -7.1744089004e+01  7.2255020507e+01  1.0217353221e+02  0.0000000000e+00 0. 9.
        1     1     7     0   104     0  1.3414796482e+01  3.8154696677e+01 -3.1533476496e+00  4.0568339189e+01  3.3000000000e-01 0. 9.
       -2     1     7     0     0   104 -4.9727385402e+01  3.8844832532e+01 -8.3365087752e+01  1.0455419948e+02  3.3000000000e-01 0. 9.
#pdf   21   21  5.052275e-02  3.490279e-02  1.898585e+02  1.885583e+00  2.763693e+00
</event>
<event>
    12  9999  1.000000e+00  2.180953e+02  7.895554e-03  1.046355e-01
       21    -1     0     0   101   102  0.0000000000e+00  0.0000000000e+00  9.1285480746e+01  9.1285480746e+01  0.0000000000e+00 0. 9.
       21    -1     0     0   103   101  0.0000000000e+00  0.0000000000e+00 -5.6779528166e+02  5.6779528166e+02  0.0000000000e+00 0. 9.
        6     2     1     2   103     0 -6.4629792088e+01  1.1958862359e+02 -3.3341443620e+02  3.9875171645e+02  1.7134554617e+02  1.485660e-13 9.
       -6     2     1     2     0   102  6.4629792088e+01 -1.1958862359e+02 -1.4309536472e+02  2.6032904595e+02  1.6975417476e+02  6.324568e-14 9.
       24     2     3     0     0     0  3.0307979540e+01  7.5110875999e+01 -1.6827447255e+02  2.0308440159e+02  7.9791971647e+01  2.176677e-14 9.
        5     1     3     0   103     0 -9.4937771628e+01  4.4477747590e+01 -1.6513996365e+02  1.9566731487e+02  4.8000000000e+00 0. 9.
      -24     2     4     0     0     0  1.7352387688e+01 -7.4946660557e+00 -1.6754096401e+01  8.4871460305e+01  8.1025857912e+01  1.746112e-13 9.
       -5     1     4     0     0   102  4.7277404401e+01 -1.1209395753e+02 -1.2634126832e+02  1.7545758565e+02  4.8000000000e+00 0. 9.
      -13     1     5     0     0     0  3.1053493514e+01  4.0646802940e+01 -1.5951643529e+02  1.6751712253e+02  1.0566000000e-01  3.437748e+05 9.
       14     1     5     0     0     0 -7.4551397480e-01  3.4464073059e+01 -8.7580372565e+00  3.5567279056e+01  0.0000000000e+00 0. 9.
        3     1     7     0   104     0  4.6066229330e+01  8.1254477805e+00  2.6037041351e+00  4.6852424287e+01  5.0000000000e-01 0. 9.
       -4     1     7     0     0   104 -2.8713841643e+01 -1.5620113836e+01 -1.9357800536e+01  3.8019036018e+01  1.5000000000e+00 0. 9.
#pdf   21   21  1.404392e-02  8.735312e-02  2.174740e+02  6.205950e+00  9.717680e-01
</event>
<event>
    12  9999  1.000000e+00  1.886889e+02  7.882484e-03  1.064875e-01
       21    -1     0     0   101   102  0.0000000000e+00  0.0000000000e+00  1.1297370527e+02  1.1297370527e+02  0.0000000000e+00 0. 9.
       21    -1     0     0   103   101  0.0000000000e+00  0.0000000000e+00 -3.5020369304e+02  3.5020369304e+02  0.0000000000e+00 0. 9.
        6     2     1     2   103     0 -7.5302172575e+01  2.6134087274e+01 -4.5073160959e+01  1.9352850737e+02  1.7049423924e+02  2.586251e-13 9.
       -6     2     1     2     0   102  7.5302172575e+01 -2.6134087274e+01 -1.9215682680e+02  2.6964889094e+02  1.7156010780e+02  2.882601e-13 9.
       24     2     3     0     0     0 -6.2148641202e+01  6.5231236088e+01  1.2498646865e+01  1.2254149807e+02  8.2113548279e+01  5.477649e-14 9.
        5     1     3     0   103     0 -1.3153531373e+01 -3.9097148814e+01 -5.7571807825e+01  7.0987009298e+01  4.8000000000e+00 0. 9.
      -24     2     4     0     0     0  1.0411934918e+02 -3.4497367777e+01 -8.9743030075e+01  1.6282192857e+02  8.0163967715e+01  1.681561e-13 9.
       -5     1     4     0     0   102 -2.8817176607e+01  8.3632805022e+00 -1.0241379673e+02  1.0682696237e+02  4.8000000000e+00 0. 9.
       -3     1     5     0     0   104  4.8590505877e+00  5.1026511872e+01 -5.9072579825e+00  5.1599040527e+01  5.0000000000e-01 0. 9.
        4     1     5     0   104     0 -6.7007691790e+01  1.4204724217e+01  1.8405904848e+01  7.0942457544e+01  1.5000000000e+00 0. 9.
        1     1     7     0   105     0  6.1536261107e+01  3.1279553655e+00 -8.6105004517e+01  1.0588048091e+02  3.3000000000e-01 0. 9.
       -2     1     7     0     0   105  4.2583088075e+01 -3.7625323142e+01 -3.6380255577e+00  5.6941447659e+01  3.3000000000e-01 0. 9.
#pdf   21   21  1.738057e-02  5.387749e-02  1.882065e+02  5.207079e+00  1.758103e+00
</event>
<event>
    12  9999  1.000000e+00  2.124548e+02  7.893186e-03  1.049657e-01
       21    -1     0     0   101   102  0.0000000000e+00  0.0000000000e+00  3.2776844919e+02  3.2776844919e+02  0.0000000000e+00 0. 9.
       21    -1     0     0   103   101  0.0000000000e+00  0.0000000000e+00 -2.6698630543e+02  2.6698630543e+02  0.0000000000e+00 0. 9.
        6     2     1     2   103     0  2.8751894583e+01  1.2733779783e+02 -1.7642887175e+02  2.7723497024e+02  1.6938269020e+02  2.833129e-14 9.
       -6     2     1     2     0   102 -2.8751894583e+01 -1.2733779783e+02  2.3721101552e+02  3.1751978437e+02  1.6585584520e+02  1.491839e-14 9.
       24     2     3     0     0     0  4.9386491551e+01  1.0523548836e+01 -7.7474137224e+01  1.2268260098e+02  8.0616425226e+01  1.361687e-13 9.
        5     1     3     0   103     0 -2.0634596969e+01  1.1681424899e+02 -9.8954734530e+01  1.5455236926e+02  4.8000000000e+00 0. 9.
      -24     2     4     0     0     0  4.1908240755e+01 -3.9609629970e+01  1.1082397575e+02  1.4815092660e+02  7.9633661362e+01  9.949624e-16 9.
       -5     1     4     0     0   102 -7.0660135337e+01 -8.7728167857e+01  1.2638703977e+02  1.6936885777e+02  4.8000000000e+00 0. 9.
      -11     1     5     0     0     0  9.3851714491e-01 -6.5585428294e+00  1.5278988816e+01  1.6653612160e+01  5.1100000000e-04 0. 9.
       12     1     5     0     0     0  4.8447974406e+01  1.7082091666e+01 -9.2753126040e+01  1.0602898882e+02  0.0000000000e+00 0. 9.
        3     1     7     0   104     0 -2.3010443319e+01 -2.5535879385e+00  3.2106057932e+01  3.9585985765e+01  5.0000000000e-01 0. 9.
       -4     1     7     0     0   104  6.4918684073e+01 -3.7056042031e+01  7.8717917818e+01  1.0856494083e+02  1.5000000000e+00 0. 9.
#pdf   21   21  5.042592e-02  4.107482e-02  2.110681e+02  1.876761e+00  2.333481e+00
</event>
<event>
    12  9999  1.000000e+00  2.940248e+02  7.922650e-03  1.010143e-01
       21    -1     0     0   101   102  0.0000000000e+00  0.0000000000e+00  7.6175663178e+02  7.6175663178e+02  0.0000000000e+00 0. 9.
       21    -1     0     0   103   101  0.0000000000e+00  0.0000000000e+00 -1.1460400814e+02  1.1460400814e+02  0.0000000000e+00 0. 9.
        6     2     1     2   103     0 -1.2410104382e+02  2.0166863686e+02  2.7902110569e+02  4.0443804759e+02  1.7218027978e+02  1.201309e-14 9.
       -6     2     1     2     0   102  1.2410104382e+02 -2.0166863686e+02  3.6813151794e+02  4.7192259233e+02  1.7640524505e+02  3.715722e-13 9.
       24     2     3     0     0     0 -1.9008463352e+01  5.5397187148e+01  4.5242363325e+01  1.0928498924e+02  8.0412482929e+01  8.430496e-14 9.
        5     1     3     0   103     0 -1.0509258047e+02  1.4627144971e+02  2.3377874237e+02  2.9515305835e+02  4.8000000000e+00 0. 9.
      -24     2     4     0     0     0  1.0358145177e+02 -2.0515067871e+02  3.7735179755e+02  4.4865820260e+02  7.7999266147e+01  1.527763e-14 9.
       -5     1     4     0     0   102  2.0519592049e+01  3.4820418519e+00 -9.2202796125e+00  2.3264389729e+01  4.8000000000e+00 0. 9.
       -3     1     5     0     0   104 -1.2641044857e+01  7.6378404234e+01  3.7080775573e+01  8.5841077378e+01  5.0000000000e-01 0. 9.
        4     1     5     0   104     0 -6.3674184958e+00 -2.0981217086e+01  8.1615877516e+00  2.3443911861e+01  1.5000000000e+00 0. 9.
        1     1     7     0   105     0  1.2906674405e+01 -1.1123515528e+02  1.6599965643e+02  2.0023944878e+02  3.3000000000e-01 0. 9.
       -2     1     7     0     0   105  9.0674777369e+01 -9.3915523436e+01  2.1135214113e+02  2.4841875383e+02  3.3000000000e-01 0. 9.
#pdf   21   21  1.171933e-01  1.763139e-02  2.927753e+02  6.248824e-01  5.109003e+00
</event>
<event>
    12  9999  1.000000e+00  1.900255e+02  7.883120e-03  1.063957e-01
       21    -1     0     0   101   102  0.0000000000e+00  0.0000000000e+00  3.9268077300e+02  3.9268077300e+02  0.0000000000e+00 0. 9.
       21    -1     0     0   103   101  0.0000000000e+00  0.0000000000e+00 -5.8820984751e+02  5.8820984751e+02  0.0000000000e+00 0. 9.
        6     2     1     2   103     0 -7.1051378234e+01 -3.9691117263e+01 -5.4828278312e+02  5.8043504723e+02  1.7224154740e+02  1.902712e-13 9.
       -6     2     1     2     0   102  7.1051378234e+01  3.9691117263e+01  3.5275370862e+02  4.0045557328e+02  1.7118938077e+02  3.674514e-13 9.
       24     2     3     0     0     0  3.1693946012e+01 -4.3175452867e+01 -2.1104818718e+02  2.2784611526e+02  6.7111019838e+01  4.257313e-14 9.
        5     1     3     0   103     0 -1.0274532425e+02  3.4843356037e+00 -3.3723459594e+02  3.5258893197e+02  4.8000000000e+00 0. 9.
      -24     2     4     0     0     0 -1.9182363498e+01  2.7085240802e+01  2.4188679809e+02  2.5687441812e+02  7.9835269477e+01  9.898059e-14 9.
       -5     1     4     0     0   102  9.0233741731e+01  1.2605876461e+01  1.1086691052e+02  1.4358115516e+02  4.8000000000e+00 0. 9.
       -1     1     5     0     0   104  2.7730303868e+01 -3.2703141050e+01 -4.7799152217e+01  6.4213184315e+01  3.3000000000e-01 0. 9.
        2     1     5     0   104     0  3.9636421431e+00 -1.0472311817e+01 -1.6324903497e+02  1.6363293095e+02  3.3000000000e-01 0. 9.
       15     1     7     0     0     0 -2.2001785922e+01 -1.6349299397e+01  3.0471004331e+01  4.1024594682e+01  1.7768200000e+00  1.672387e-01 9.
      -16     1     7     0     0     0  2.8194224244e+00  4.3434540199e+01  2.1141579376e+02  2.1584982344e+02  0.0000000000e+00 0. 9.
#pdf   21   21  6.041243e-02  9.049382e-02  1.895508e+02  1.544397e+00  9.402470e-01
</event>
<event>
    12  9999  1.000000e+00  2.229453e+02  7.897543e-03  1.043599e-01
       21    -1     0     0   101   102  0.0000000000e+00  0.0000000000e+00  1.5493184367e+03  1.5493184367e+03  0.0000000000e+00 0. 9.
       21    -1     0     0   103   101  0.0000000000e+00  0.0000000000e+00 -3.5520239469e+01  3.5520239469e+01  0.0000000000e+00 0. 9.
        6     2     1     2   103     0 -1.0853113856e+02 -9.3047678810e+01  5.1008114588e+02  5.5664072387e+02  1.7096561503e+02  2.352365e-13 9.
       -6     2     1     2     0   102  1.0853113856e+02  9.3047678810e+01  1.0037170513e+03  1.0281979523e+03  1.7119062873e+02  1.532236e-13 9.
       24     2     3     0     0     0  6.4512662948e+00 -4.4309320305e+01  1.5521197466e+02  1.8040735255e+02  8.0318871211e+01  1.586463e-13 9.
        5     1     3     0   103     0 -1.1498240486e+02 -4.8738358505e+01  3.5486917122e+02  3.7623337132e+02  4.8000000000e+00 0. 9.
      -24     2     4     0     0     0  7.5589995124e+01  6.4827539552e+01  2.8315779098e+02  3.0631833429e+02  6.1123891247e+01  2.239911e-14 9.
       -5     1     4     0     0   102  3.2941143438e+01  2.8220139258e+01  7.2055926035e+02  7.2187961799e+02  4.8000000000e+00 0. 9.
      -13     1     5     0     0     0  1.1727271297e+01  2.0474680607e+01  6.5524221154e+01  6.9643206129e+01  1.0566000000e-01  1.688976e+06 9.
       14     1     5     0     0     0 -5.2760050023e+00 -6.4784000912e+01  8.9687753507e+01  1.1076414642e+02  0.0000000000e+00 0. 9.
        1     1     7     0   104     0  1.6633641410e+01 -4.8560600344e+00  1.4563118887e+01  2.2637417638e+01  3.3000000000e-01 0. 9.
       -2     1     7     0     0   104  5.8956353714e+01  6.9683599586e+01  2.6859467209e+02  2.8368091665e+02  3.3000000000e-01 0. 9.
#pdf   21   21  2.383567e-01  5.464652e-03  2.228590e+02  1.803122e-01  1.270033e+01
</event>
<event>
    12  9999  1.000000e+00  2.185041e+02  7.895723e-03  1.046119e-01
       21    -1     0     0   101   102  0.0000000000e+00  0.0000000000e+00  1.2661609342e+02  1.2661609342e+02  0.0000000000e+00 0. 9.
       21    -1     0     0   103   101  0.0000000000e+00  0.0000000000e+00 -4.6011442973e+02  4.6011442973e+02  0.0000000000e+00 0. 9.
        6     2     1     2   103     0  1.3515388947e+02 -1.1006395260e+01 -2.9155579854e+02  3.6452004480e+02  1.7170429471e+02  2.820016e-14 9.
       -6     2     1     2     0   102 -1.3515388947e+02  1.1006395260e+01 -4.1942537773e+01  2.2221047835e+02  1.7096960442e+02  3.513275e-14 9.
       24     2     3     0     0     0  1.3168839327e+02 -1.7033162655e+00 -1.2759940271e+02  2.0019324639e+02  8.0318080893e+01  2.978957e-14 9.
        5     1     3     0   103     0  3.4654961995e+00 -9.3030789945e+00 -1.6395639583e+02  1.6432679841e+02  4.8000000000e+00 0. 9.
      -24     2     4     0     0     0 -1.4340252538e+02  5.4587946166e+01 -4.0088637182e+01  1.7755772344e+02  7.9846841957e+01  2.590976e-13 9.
       -5     1     4     0     0   102  8.2486359032e+00 -4.3581550906e+01 -1.8539005910e+00  4.4652754910e+01  4.8000000000e+00 0. 9.
      -11     1     5     0     0     0  7.6457925829e+01 -2.7635532333e+00 -1.2288006216e+02  1.4475137762e+02  5.1100000000e-04 0. 9.
       12     1     5     0     0     0  5.5230467444e+01  1.0602369677e+00 -4.7193405507e+00  5.5441868761e+01  0.0000000000e+00 0. 9.
        1     1     7     0   104     0 -7.9204655224e+01  6.4216179135e+01 -4.6993888277e+01  1.1227479462e+02  3.3000000000e-01 0. 9.
       -2     1     7     0     0   104 -6.4197870152e+01 -9.6282329692e+00  6.9052510951e+00  6.5282928817e+01  3.3000000000e-01 0. 9.
#pdf   21   21  1.947940e-02  7.078684e-02  2.182162e+02  4.712316e+00  1.266469e+00
</event>
<event>
    12  9999  1.000000e+00  1.954968e+02  7.885679e-03  1.060282e-01
       21    -1     0     0   101   102  0.0000000000e+00  0.0000000000e+00  4.8458104973e+02  4.8458104973e+02  0.0000000000e+00 0. 9.
       21    -1     0     0   102   103  0.0000000000e+00  0.0000000000e+00 -1.1755738217e+02  1.1755738217e+02  0.0000000000e+00 0. 9.
        6     2     1     2   101     0 -7.5227312081e+01 -5.6470483276e+01  3.5640072339e+02  4.0663265843e+02  1.7169909525e+02  1.328231e-13 9.
       -6     2     1     2     0   103  7.5227312081e+01  5.6470483276e+01  1.0622944176e+01  1.9550577346e+02  1.7106021323e+02  1.346964e-13 9.
       24     2     3     0     0     0 -4.9965779091e+01 -2.4218829257e+01  3.5178792132e+02  3.6512805412e+02  8.0502320140e+01  3.561198e-14 9.
        5     1     3     0   101     0 -2.5261532990e+01 -3.2251654019e+01  4.6128020624e+00  4.1504604309e+01  4.8000000000e+00 0. 9.
      -24     2     4     0     0     0  7.9654188624e+01  9.9653068702e+01  7.0873162332e-01  1.5072112732e+02  8.0254794572e+01  2.133588e-13 9.
       -5     1     4     0     0   103 -4.4268765433e+00 -4.3182585426e+01  9.9142125529e+00  4.4784646147e+01  4.8000000000e+00 0. 9.
       -1     1     5     0     0   104 -3.1041077250e+00  1.8817958467e+01  1.9487005941e+02  1.9580143002e+02  3.3000000000e-01 0. 9.
        2     1     5     0   104     0 -4.6861671366e+01 -4.3036787724e+01  1.5691786192e+02  1.6932662410e+02  3.3000000000e-01 0. 9.
        3     1     7     0   105     0  3.2344309054e+01 -3.1006227300e+00  1.6579655564e+01  3.6481545583e+01  5.0000000000e-01 0. 9.
       -4     1     7     0     0   105  4.7309879571e+01  1.0275369143e+02 -1.5870923941e+01  1.1423958173e+02  1.5000000000e+00 0. 9.
#pdf   21   21  7.455093e-02  1.808575e-02  1.952170e+02  1.199983e+00  5.032551e+00
</event>
<event>
    12  9999  1.000000e+00  2.120580e+02  7.893017e-03  1.049893e-01
       21    -1     0     0   101   102  0.0000000000e+00  0.0000000000e+00  4.3517101056e+01  4.3517101056e+01  0.0000000000e+00 0. 9.
       21    -1     0     0   103   101  0.0000000000e+00  0.0000000000e+00 -1.2846970848e+03  1.2846970848e+03  0.0000000000e+00 0. 9.
        6     2     1     2   103     0  9.2309035547e+01 -8.3606013228e+01 -9.1526739977e+02  9.3960189259e+02  1.7212315354e+02  1.483660e-15 9.
       -6     2     1     2     0   102 -9.2309035547e+01  8.3606013228e+01 -3.2591258402e+02  3.8861229331e+02  1.7114198374e+02  2.094319e-14 9.
       24     2     3     0     0     0 -1.0447333795e+01 -2.6326599268e+01 -2.4781055874e+02  2.6183978289e+02  7.9672845247e+01  1.344002e-13 9.
        5     1     3     0   103     0  1.0275636934e+02 -5.7279413960e+01 -6.6745684103e+02  6.7776210969e+02  4.8000000000e+00 0. 9.
      -24     2     4     0     0     0 -1.0643584392e+01  6.7465564785e+01 -2.6535757983e+02  2.8556032331e+02  8.0406248236e+01  3.623234e-14 9.
       -5     1     4     0     0   102 -8.1665451155e+01  1.6140448443e+01 -6.0555004186e+01  1.0305197000e+02  4.8000000000e+00 0. 9.
       -3     1     5     0     0   104  4.8915605939e+00  2.3133402071e+01 -1.4280482882e+02  1.4474995955e+02  5.0000000000e-01 0. 9.
        4     1     5     0   104     0 -1.5338894389e+01 -4.9460001339e+01 -1.0500572992e+02  1.1708982334e+02  1.5000000000e+00 0. 9.
        3     1     7     0   105     0 -1.3713790594e+01 -1.5394303773e+01 -7.7791808603e+01  8.0478991835e+01  5.0000000000e-01 0. 9.
       -4     1     7     0     0   105  3.0702062028e+00  8.2859868558e+01 -1.8756577123e+02  2.0508133147e+02  1.5000000000e+00 0. 9.
#pdf   21   21  6.694939e-03  1.976457e-01  2.116613e+02  1.096338e+01  2.703759e-01
</event>
<event>
    12  9999  1.000000e+00  2.525604e+02  7.908839e-03  1.028247e-01
        2    -1     0     0   101     0  0.0000000000e+00  0.0000000000e+00  1.2591533725e+03  1.2591533725e+03  0.0000000000e+00 0. 9.
       -2    -1     0     0     0   102  0.0000000000e+00  0.0000000000e+00 -5.0803820587e+01  5.0803820587e+01  0.0000000000e+00 0. 9.
        6     2     1     2   101     0  4.9514696445e+01 -1.7799810005e+02  5.6945507160e+02  6.2300304567e+02  1.7239108895e+02  1.012042e-13 9.
       -6     2     1     2     0   102 -4.9514696445e+01  1.7799810005e+02  6.3889448032e+02  6.8695414743e+02  1.7200236888e+02  1.244790e-13 9.
       24     2     3     0     0     0 -2.5328825784e+01 -1.1696851877e+02  2.4018816028e+02  2.7983267762e+02  7.9327115969e+01  5.649634e-14 9.
        5     1     3     0   101     0  7.4843522229e+01 -6.1029581278e+01  3.2926691132e+02  3.4317036804e+02  4.8000000000e+00 0. 9.
      -24     2     4     0     0     0 -9.8426627351e+01  1.4563860913e+02  4.7343783396e+02  5.1134533369e+02  8.0201385417e+01  1.373796e-13 9.
       -5     1     4     0     0   102  4.8911930906e+01  3.2359490921e+01  1.6545664636e+02  1.7560881374e+02  4.8000000000e+00 0. 9.
      -13     1     5     0     0     0 -1.7868660993e+01  6.1468713965e+00  2.0444295035e+01  2.7839781557e+01  1.0566000000e-01  1.585812e+05 9.
       14     1     5     0     0     0 -7.4601647911e+00 -1.2311539017e+02  2.1974386524e+02  2.5199289607e+02  0.0000000000e+00 0. 9.
        3     1     7     0   103     0  1.1035617156e+01  2.9236947628e+00  5.0005188139e+01  5.1294265545e+01  5.0000000000e-01 0. 9.
       -4     1     7     0     0   103 -1.0946224451e+02  1.4271491437e+02  4.2343264582e+02  4.6005106814e+02  1.5000000000e+00 0. 9.
#pdf    2   -2  1.937159e-01  7.815972e-03  2.524279e+02  4.508353e-01  6.093868e-01
</event>
<event>
    12  9999  1.000000e+00  3.374461e+02  7.935206e-03  9.942876e-02
       21    -1     0     0   101   102  0.0000000000e+00  0.0000000000e+00  1.9317552624e+03  1.9317552624e+03  0.0000000000e+00 0. 9.
       21    -1     0     0   102   103  0.0000000000e+00  0.0000000000e+00 -7.2046753850e+01  7.2046753850e+01  0.0000000000e+00 0. 9.
        6     2     1     2   101     0  5.2092952832e+01 -2.8658469643e+02  1.3575465793e+03  1.3989072762e+03  1.7077584269e+02  1.735521e-14 9.
       -6     2     1     2     0   103 -5.2092952832e+01  2.8658469643e+02  5.0216192921e+02  6.0489474002e+02  1.6996052305e+02  1.528040e-13 9.
       24     2     3     0     0     0  6.0602653430e+01 -7.9999098559e+01  5.6298251430e+02  5.7786822862e+02  8.3125452558e+01  4.572094e-14 9.
        5     1     3     0   101     0 -8.5097005977e+00 -2.0658559787e+02  7.9456406504e+02  8.2103904762e+02  4.8000000000e+00 0. 9.
      -24     2     4     0     0     0 -8.6173308262e+01  2.5103595231e+02  3.6109653009e+02  4.5540336681e+02  8.0973045225e+01  1.125363e-13 9.
       -5     1     4     0     0   103  3.4080355430e+01  3.5548744125e+01  1.4106539912e+02  1.4949137321e+02  4.8000000000e+00 0. 9.
      -15     1     5     0     0     0  6.4002649157e+01 -5.6669452687e+01  2.5436296661e+02  2.6834947706e+02  1.7768200000e+00  3.471120e-01 9.
       16     1     5     0     0     0 -3.3999957278e+00 -2.3329645872e+01  3.0861954770e+02  3.0951875156e+02  0.0000000000e+00 0. 9.
       11     1     7     0     0     0  7.4676802006e+00  4.7193473805e+01  1.0236643083e+02  1.1296847515e+02  5.1100000000e-04 0. 9.
      -12     1     7     0     0     0 -9.3640988463e+01  2.0384247850e+02  2.5873009926e+02  3.4243489166e+02  0.0000000000e+00 0. 9.
#pdf   21   21  2.971931e-01  1.108412e-02  3.372403e+02  9.193104e-02  7.505462e+00
</event>
<event>
    12  9999  1.000000e+00  2.639733e+02  7.912849e-03  1.022916e-01
       21    -1     0     0   101   102  0.0000000000e+00  0.0000000000e+00  4.4725629721e+02  4.4725629721e+02  0.0000000000e+00 0. 9.
       21    -1     0     0   103   101  0.0000000000e+00  0.0000000000e+00 -1.6626968405e+02  1.6626968405e+02  0.0000000000e+00 0. 9.
        6     2     1     2   103     0  3.5953004257e+01 -1.9866154841e+02  6.3218833075e+01  2.7086362918e+02  1.6914921053e+02  3.247301e-14 9.
       -6     2     1     2     0   102 -3.5953004257e+01  1.9866154841e+02  2.1776778009e+02  3.4266235208e+02  1.7098436230e+02  2.864903e-13 9.
       24     2     3     0     0     0  2.5770545049e+01 -1.4559931299e+02  1.0425059978e+02  2.0284944550e+02  9.1741097931e+01  3.793029e-13 9.
        5     1     3     0   103     0  1.0182459208e+01 -5.3062235421e+01 -4.1031766701e+01  6.8014183682e+01  4.8000000000e+00 0. 9.
      -24     2     4     0     0     0 -7.6348358940e+01  1.4292239058e+02  2.0355312999e+02  2.7220857522e+02  8.0048423166e+01  1.212895e-14 9.
       -5     1     4     0     0   102  4.0395354683e+01  5.5739157836e+01  1.4214650096e+01  7.0453776858e+01  4.8000000000e+00 0. 9.
       -3     1     5     0     0   104  5.3900564752e+01 -6.5126587817e+01  2.9739614091e+01  8.9618290363e+01  5.0000000000e-01 0. 9.
        4     1     5     0   104     0 -2.8130019703e+01 -8.0472725176e+01  7.4510985685e+01  1.1323115514e+02  1.5000000000e+00 0. 9.
        3     1     7     0   105     0 -2.4755803018e+01  3.4127177531e+01  1.1571786989e+02  1.2316001560e+02  5.0000000000e-01 0. 9.
       -4     1     7     0     0   105 -5.1592555922e+01  1.0879521305e+02  8.7835260101e+01  1.4904855962e+02  1.5000000000e+00 0. 9.
#pdf   21   21  6.880866e-02  2.557995e-02  2.633828e+02  1.290651e+00  3.671488e+00
</event>
<event>
    12  9999  1.000000e+00  1.760755e+02  7.876256e-03  1.073959e-01
       21    -1     0     0   101   102  0.0000000000e+00  0.0000000000e+00  1.6289976432e+02  1.6289976432e+02  0.0000000000e+00 0. 9.
       21    -1     0     0   103   101  0.0000000000e+00  0.0000000000e+00 -4.9711278905e+02  4.9711278905e+02  0.0000000000e+00 0. 9.
        6     2     1     2   103     0  7.1518398465e-01 -3.9094913850e+01 -4.2625943662e+02  4.6109171886e+02  1.7140461519e+02  5.515616e-14 9.
       -6     2     1     2     0   102 -7.1518398465e-01  3.9094913850e+01  9.2046411896e+01  1.9892083451e+02  1.7195357712e+02  1.308587e-13 9.
       24     2     3     0     0     0  1.1812095985e+01 -2.9214576693e+01 -4.3543121140e+02  4.4298304771e+02  7.5104085042e+01  1.027603e-13 9.
        5     1     3     0   103     0 -1.1096912000e+01 -9.8803371570e+00  9.1717747766e+00  1.8108671150e+01  4.8000000000e+00 0. 9.
      -24     2     4     0     0     0 -2.8673967066e+01  3.3548189153e+01  1.2442358403e+02  1.5551828872e+02  8.2201170797e+01  3.182260e-14 9.
       -5     1     4     0     0   102  2.7958783081e+01  5.5467246976e+00 -3.2377172131e+01  4.3402545795e+01  4.8000000000e+00 0. 9.
       -1     1     5     0     0   104 -6.5478132201e+00  1.5400213187e+01 -2.7364365162e+02  2.7415506086e+02  3.3000000000e-01 0. 9.
        2     1     5     0   104     0  1.8359909205e+01 -4.4614789880e+01 -1.6178755978e+02  1.6882798685e+02  3.3000000000e-01 0. 9.
        1     1     7     0   105     0 -4.6445952968e+01 -3.7163934007e+00  9.1613220341e+01  1.0278194962e+02  3.3000000000e-01 0. 9.
       -2     1     7     0     0   105  1.7771985902e+01  3.7264582553e+01  3.2810363686e+01  5.2736339094e+01  3.3000000000e-01 0. 9.
#pdf   21   21  2.506150e-02  7.647889e-02  1.758080e+02  3.787356e+00  1.173089e+00
</event>
<event>
    12  9999  1.000000e+00  2.120414e+02  7.893010e-03  1.049903e-01
       21    -1     0     0   101   102  0.0000000000e+00  0.0000000000e+00  5.8691759060e+02  5.8691759060e+02  0.0000000000e+00 0. 9.
       21    -1     0     0   103   101  0.0000000000e+00  0.0000000000e+00 -7.8585002078e+01  7.8585002078e+01  0.0000000000e+00 0. 9.
        6     2     1     2   103     0  4.9850862465e+01 -1.1298683204e+02  1.9923478797e+02  2.8958574462e+02  1.7004196555e+02  9.640693e-14 9.
       -6     2     1     2     0   102 -4.9850862465e+01  1.1298683204e+02  3.0909780056e+02  3.7591684806e+02  1.7470230005e+02  1.805875e-15 9.
       24     2     3     0     0     0  4.6016767319e+01 -4.5438267412e+00  5.0570831269e+01  1.0547002638e+02  8.0176856090e+01  8.302337e-14 9.
        5     1     3     0   103     0  3.8340951459e+00 -1.0844300530e+02  1.4866395670e+02  1.8411571824e+02  4.8000000000e+00 0. 9.
      -24     2     4     0     0     0 -1.4039270993e+01  1.0380951940e+02  1.1248156439e+02  1.7579768987e+02  8.5318274641e+01  1.332019e-13 9.
       -5     1     4     0     0   102 -3.5811591472e+01  9.1773126402e+00  1.9661623617e+02  2.0011915819e+02  4.8000000000e+00 0. 9.
       -1     1     5     0     0   104  3.6842192690e+01 -1.1599136253e+01  7.1662386095e+01  8.1409419632e+01  3.3000000000e-01 0. 9.
        2     1     5     0   104     0  9.1745746295e+00  7.0553095119e+00 -2.1091554825e+01  2.4060606744e+01  3.3000000000e-01 0. 9.
        1     1     7     0   105     0 -2.6227431117e+01 -2.5579542837e+00  1.1964368199e+01  2.8942637743e+01  3.3000000000e-01 0. 9.
       -2     1     7     0     0   105  1.2188160124e+01  1.0636747368e+02  1.0051719619e+02  1.4685505213e+02  3.3000000000e-01 0. 9.
#pdf   21   21  9.029501e-02  1.209000e-02  2.101557e+02  9.334771e-01  7.002038e+00
</event>
<event>
    12  9999  1.000000e+00  1.810519e+02  7.878763e-03  1.070281e-01
       21    -1     0     0   101   102  0.0000000000e+00  0.0000000000e+00  2.0077900564e+01  2.0077900564e+01  0.0000000000e+00 0. 9.
       21    -1     0     0   102   103  0.0000000000e+00  0.0000000000e+00 -1.7371535210e+03  1.7371535210e+03  0.0000000000e+00 0. 9.
        6     2     1     2   101     0  1.2714105424e+00  5.9981931817e+01 -1.0738259126e+03  1.0889734423e+03  1.7076773345e+02  6.253358e-14 9.
       -6     2     1     2     0   103 -1.2714105424e+00 -5.9981931817e+01 -6.4324970781e+02  6.6825797926e+02  1.7087741693e+02  3.181903e-13 9.
       24     2     3     0     0     0  2.0371972270e+01  4.8239678308e+01 -2.8647499395e+02  3.0128872040e+02  7.7232681339e+01  2.104518e-14 9.
        5     1     3     0   101     0 -1.9100561728e+01  1.1742253510e+01 -7.8735091864e+02  7.8768472187e+02  4.8000000000e+00 0. 9.
      -24     2     4     0     0     0  4.9373017129e+01 -8.2245166867e+01 -4.3620854953e+02  4.5389942238e+02  8.0900090563e+01  1.955451e-14 9.
       -5     1     4     0     0   103 -5.0644427671e+01  2.2263235050e+01 -2.0704115827e+02  2.1435855688e+02  4.8000000000e+00 0. 9.
       -1     1     5     0     0   104 -1.9347857305e+01  4.9925992327e+01 -1.6650406961e+02  1.7490185359e+02  3.3000000000e-01 0. 9.
        2     1     5     0   104     0  3.9719829575e+01 -1.6863140190e+00 -1.1997092433e+02  1.2638686681e+02  3.3000000000e-01 0. 9.
        1     1     7     0   105     0  4.1092502899e+01 -2.2101280205e+01 -8.0486261053e+01  9.3033367667e+01  3.3000000000e-01 0. 9.
       -2     1     7     0     0   105  8.2805142299e+00 -6.0143886662e+01 -3.5572228848e+02  3.6086605471e+02  3.3000000000e-01 0. 9.
#pdf   21   21  3.088908e-03  2.672544e-01  1.810002e+02  1.855360e+01  1.429158e-01
</event>
<event>
    12  9999  1.000000e+00  1.737142e+02  7.875041e-03  1.075751e-01
       21    -1     0     0   101   102  0.0000000000e+00  0.0000000000e+00  5.2698682739e+02  5.2698682739e+02  0.0000000000e+00 0. 9.
       21    -1     0     0   103   101  0.0000000000e+00  0.0000000000e+00 -7.5334333113e+01  7.5334333113e+01  0.0000000000e+00 0. 9.
        6     2     1     2   103     0  2.2842958796e+01  2.1983060777e+01  7.9560661675e+01  1.9219678559e+02  1.7206001795e+02  2.788444e-13 9.
       -6     2     1     2     0   102 -2.2842958796e+01 -2.1983060777e+01  3.7209183260e+02  4.1012437491e+02  1.6954237016e+02  3.892591e-13 9.
       24     2     3     0     0     0 -2.7238121820e+01  5.2411628456e+01  8.6333155356e+00  1.0006784987e+02  8.0312803232e+01  2.506469e-13 9.
        5     1     3     0   103     0  5.0081080616e+01 -3.0428567679e+01  7.0927346140e+01  9.2128935721e+01  4.8000000000e+00 0. 9.
      -24     2     4     0     0     0 -2.0359003963e+01  4.4242123250e+01  2.8795741202e+02  3.0291623269e+02  8.0417152270e+01  1.157630e-13 9.
       -5     1     4     0     0   102 -2.4839548330e+00 -6.6225184027e+01  8.4134420577e+01  1.0720814221e+02  4.8000000000e+00 0. 9.
       -1     1     5     0     0   104  1.1525515899e+01 -6.8858795642e+00  2.4068214935e+01  2.7561580583e+01  3.3000000000e-01 0. 9.
        2     1     5     0   104     0 -3.8763637719e+01  5.9297508020e+01 -1.5434899399e+01  7.2506269288e+01  3.3000000000e-01 0. 9.
        3     1     7     0   105     0  1.5020019543e+01  1.9861605658e+01  2.1172959794e+01  3.2689885176e+01  5.0000000000e-01 0. 9.
       -4     1     7     0     0   105 -3.5379023507e+01  2.4380517592e+01  2.6678445223e+02  2.7022634752e+02  1.5000000000e+00 0. 9.
#pdf   21   21  8.107490e-02  1.158990e-02  1.724809e+02  1.092523e+00  7.230326e+00
</event>
<event>
    12  9999  1.000000e+00  2.184732e+02  7.895711e-03  1.046137e-01
       21    -1     0     0   101   102  0.0000000000e+00  0.0000000000e+00  9.2464998026e+01  9.2464998026e+01  0.0000000000e+00 0. 9.
       21    -1     0     0   102   103  0.0000000000e+00  0.0000000000e+00 -9.3465215123e+02  9.3465215123e+02  0.0000000000e+00 0. 9.
        6     2     1     2   101     0 -1.5361199710e+01 -1.3580350638e+02 -7.8625801302e+01  2.3321157890e+02  1.7183441187e+02  4.565931e-13 9.
       -6     2     1     2     0   103  1.5361199710e+01  1.3580350638e+02 -7.6356135191e+02  7.9390557035e+02  1.6906081070e+02  1.178703e-13 9.
       24     2     3     0     0     0 -6.1290305286e+01 -7.4205847408e+01 -9.1862363671e+01  1.5509627367e+02  7.9706655519e+01  4.593649e-13 9.
        5     1     3     0   101     0  4.5929105576e+01 -6.1597658967e+01  1.3236562369e+01  7.8115305239e+01  4.8000000000e+00 0. 9.
      -24     2     4     0     0     0  5.2779624639e+01  3.7851477937e+01 -2.5861635786e+02  2.7816607661e+02  7.9218195276e+01  1.984560e-14 9.
       -5     1     4     0     0   103 -3.7418424929e+01  9.7952028439e+01 -5.0494499404e+02  5.1573949374e+02  4.8000000000e+00 0. 9.
      -15     1     5     0     0     0 -4.5526299879e+01 -6.7525980490e+01 -2.3728972348e+01  8.4844700717e+01  1.7768200000e+00  4.114716e-01 9.
       16     1     5     0     0     0 -1.5764005407e+01 -6.6798669184e+00 -6.8133391323e+01  7.0251572948e+01  0.0000000000e+00 0. 9.
        1     1     7     0   104     0  5.5805825493e+01  2.3212585695e+01 -2.5584692351e+02  2.6288946624e+02  3.3000000000e-01 0. 9.
       -4     1     7     0     0   104 -3.0262008533e+00  1.4638892242e+01 -2.7694343576e+00  1.5276610368e+01  1.5000000000e+00 0. 9.
#pdf   21   21  1.422538e-02  1.437926e-01  2.173939e+02  6.141173e+00  4.723727e-01
</event>
<event>
    12  9999  1.000000e+00  3.231855e+02  7.931266e-03  9.992034e-02
       21    -1     0     0   101   102  0.0000000000e+00  0.0000000000e+00  1.8711316823e+02  1.8711316823e+02  0.0000000000e+00 0. 9.
       21    -1     0     0   103   101  0.0000000000e+00  0.0000000000e+00 -9.7512747420e+02  9.7512747420e+02  0.0000000000e+00 0. 9.
        6     2     1     2   103     0 -2.7563177821e+01 -2.7237761699e+02 -7.7427666084e+02  8.3918029882e+02  1.7253965166e+02  1.281167e-13 9.
       -6     2     1     2     0   102  2.7563177821e+01  2.7237761699e+02 -1.3737645129e+01  3.2306034360e+02  1.7096773878e+02  1.360252e-13 9.
       24     2     3     0     0     0 -7.2190603639e+00 -2.7135697962e+02 -7.6557508029e+02  8.1651573794e+02  8.3102476054e+01  1.179680e-13 9.
        5     1     3     0   103     0 -2.0344117457e+01 -1.0206373669e+00 -8.7015805557e+00  2.2664560881e+01  4.8000000000e+00 0. 9.
      -24     2     4     0     0     0 -1.0429351090e+01  2.6458189342e+02 -3.4175720411e+01  2.7895863751e+02  8.0855376341e+01  3.487306e-14 9.
       -5     1     4     0     0   102  3.7992528911e+01  7.7957235687e+00  2.0438075282e+01  4.4101706092e+01  4.8000000000e+00 0. 9.
      -13     1     5     0     0     0 -3.9971483104e+01 -1.2092994254e+02 -4.0185916767e+02  4.2155969005e+02  1.0566000000e-01  2.036837e+05 9.
       14     1     5     0     0     0  3.2752422740e+01 -1.5042703708e+02 -3.6371591261e+02  3.9495604790e+02  0.0000000000e+00 0. 9.
        1     1     7     0   104     0 -1.3688701668e+01  2.0692804938e+02  7.8647402825e+00  2.0752966345e+02  3.3000000000e-01 0. 9.
       -2     1     7     0     0   104  3.2593505783e+00  5.7653844042e+01 -4.2040460693e+01  7.1428974053e+01  3.3000000000e-01 0. 9.
#pdf   21   21  2.878664e-02  1.500196e-01  3.227681e+02  3.259937e+00  4.174958e-01
</event>
<event>
    12  9999  1.000000e+00  2.126601e+02  7.893273e-03  1.049535e-01
       21    -1     0     0   101   102  0.0000000000e+00  0.0000000000e+00  3.4185074175e+01  3.4185074175e+01  0.0000000000e+00 0. 9.
       21    -1     0     0   103   101  0.0000000000e+00  0.0000000000e+00 -1.5066011195e+03  1.5066011195e+03  0.0000000000e+00 0. 9.
        6     2     1     2   103     0  1.3001381592e+02  1.2779943884e+00 -9.9595873230e+02  1.0177978487e+03  1.6454008262e+02  2.721879e-13 9.
       -6     2     1     2     0   102 -1.3001381592e+02 -1.2779943884e+00 -4.7645731298e+02  5.2298834492e+02  1.7204654089e+02  2.003766e-13 9.
       24     2     3     0     0     0  6.2481817760e+01 -3.5497482106e+01 -3.4001472810e+02  3.5734453235e+02  8.3192852376e+01  1.199097e-13 9.
        5     1     3     0   103     0  6.7531998165e+01  3.6775476494e+01 -6.5594400420e+02  6.6045331636e+02  4.8000000000e+00 0. 9.
      -24     2     4     0     0     0 -1.0490937329e+02  4.4407460578e+01 -2.1199926577e+02  2.5339885594e+02  7.9305058769e+01  2.239657e-13 9.
       -5     1     4     0     0   102 -2.5104442640e+01 -4.5685454966e+01 -2.6445804721e+02  2.6958948898e+02  4.8000000000e+00 0. 9.
       -1     1     5     0     0   104  3.2287884778e+01 -2.6872837680e+01 -4.8587138614e+01  6.4229867251e+01  3.3000000000e-01 0. 9.
        2     1     5     0   104     0  3.0193932982e+01 -8.6246444261e+00 -2.9142758949e+02  2.9311466510e+02  3.3000000000e-01 0. 9.
       13     1     7     0     0     0 -8.2055158510e+01  4.0281670520e-01 -1.6858133699e+02  1.8749103884e+02  1.0566000000e-01  2.494972e+05 9.
      -14     1     7     0     0     0 -2.2854214776e+01  4.4004643873e+01 -4.3417928775e+01  6.5907817097e+01  0.0000000000e+00 0. 9.
#pdf   21   21  5.259242e-03  2.317848e-01  2.097109e+02  1.302298e+01  1.944422e-01
</event>
<event>
    12  9999  1.000000e+00  2.662694e+02  7.913636e-03  1.021877e-01
       21    -1     0     0   101   102  0.0000000000e+00  0.0000000000e+00  6.4205367739e+01  6.4205367739e+01  0.0000000000e+00 0. 9.
       21    -1     0     0   102   103  0.0000000000e+00  0.0000000000e+00 -1.4941184565e+03  1.4941184565e+03  0.0000000000e+00 0. 9.
        6     2     1     2   101     0 -1.5800261046e+02 -1.2803247961e+02 -3.1610141811e+02  4.1302702212e+02  1.7121353254e+02  2.186340e-15 9.
       -6     2     1     2     0   103  1.5800261046e+02  1.2803247961e+02 -1.1138116706e+03  1.1452968021e+03  1.7254328879e+02  6.555695e-14 9.
       24     2     3     0     0     0 -1.2348251151e+02 -2.7441294464e+01 -1.3422185295e+02  2.0228205781e+02  8.3075687248e+01  2.349500e-15 9.
        5     1     3     0   101     0 -3.4520098952e+01 -1.0059118515e+02 -1.8187956516e+02  2.1074496431e+02  4.8000000000e+00 0. 9.
      -24     2     4     0     0     0  1.5133037493e+02  1.3900427932e+02 -1.1089335364e+03  1.1307456747e+03  8.1419411637e+01  2.179352e-15 9.
       -5     1     4     0     0   103  6.6722355351e+00 -1.0971799704e+01 -4.8781342352e+00  1.4551127427e+01  4.8000000000e+00 0. 9.
       -3     1     5     0     0   104 -8.3902753652e+01 -5.7240445832e+01 -8.5259209990e+01  1.3261042040e+02  5.0000000000e-01 0. 9.
        4     1     5     0   104     0 -3.9579757859e+01  2.9799151368e+01 -4.8962642960e+01  6.9671637415e+01  1.5000000000e+00 0. 9.
        1     1     7     0   105     0  1.0130602983e+02  4.3590026310e+01 -4.6786874873e+02  4.8069145718e+02  3.3000000000e-01 0. 9.
       -2     1     7     0     0   105  5.0024345095e+01  9.5414253006e+01 -6.4106478768e+02  6.5005421749e+02  3.3000000000e-01 0. 9.
#pdf   21   21  9.877749e-03  2.298644e-01  2.658406e+02  8.213825e+00  1.891052e-01
</event>
<event>
    12  9999  1.000000e+00  2.450529e+02  7.906103e-03  1.031919e-01
        2    -1     0     0   101     0  0.0000000000e+00  0.0000000000e+00  1.4716344317e+03  1.4716344317e+03  0.0000000000e+00 0. 9.
       -2    -1     0     0     0   102  0.0000000000e+00  0.0000000000e+00 -4.6382876708e+01  4.6382876708e+01  0.0000000000e+00 0. 9.
        6     2     1     2   101     0 -1.5678928235e+02 -7.7877622495e+01  4.4903459275e+02  5.1147555806e+02  1.7125238060e+02  2.522313e-14 9.
       -6     2     1     2     0   102  1.5678928235e+02  7.7877622495e+01  9.7621696221e+02  1.0065417503e+03  1.7169430590e+02  5.026423e-14 9.
       24     2     3     0     0     0 -1.4745392205e+02 -3.7930139176e+01  2.1815701417e+02  2.7693249876e+02  7.6927052794e+01  1.032607e-13 9.
        5     1     3     0   101     0 -9.3353603039e+00 -3.9947483319e+01  2.3087757858e+02  2.3454305930e+02  4.8000000000e+00 0. 9.
      -24     2     4     0     0     0  1.0452919359e+02  1.1623243952e+02  7.9265865530e+02  8.1181398932e+02  7.9359165359e+01  1.210279e-13 9.
       -5     1     4     0     0   102  5.2260088767e+01 -3.8354817024e+01  1.8355830691e+02  1.9472776100e+02  4.8000000000e+00 0. 9.
       -1     1     5     0     0   103  4.8127150222e+00  9.8713761993e+00  1.3608771632e+01  1.7490393343e+01  3.3000000000e-01 0. 9.
        2     1     5     0   103     0 -1.5226663707e+02 -4.7801515375e+01  2.0454824254e+02  2.5944210542e+02  3.3000000000e-01 0. 9.
        1     1     7     0   104     0  1.0547315852e+02  9.8201479187e+01  7.6709873386e+02  7.8051822149e+02  3.3000000000e-01 0. 9.
       -2     1     7     0     0   104 -9.4396493383e-01  1.8030960332e+01  2.5559921438e+01  3.1295767832e+01  3.3000000000e-01 0. 9.
#pdf    2   -2  2.264053e-01  7.135827e-03  2.448983e+02  4.041191e-01  6.400179e-01
</event>
<event>
    12  9999  1.000000e+00  2.779221e+02  7.917527e-03  1.016775e-01
       21    -1     0     0   101   102  0.0000000000e+00  0.0000000000e+00  6.7555055157e+01  6.7555055157e+01  0.0000000000e+00 0. 9.
       21    -1     0     0   103   101  0.0000000000e+00  0.0000000000e+00 -2.0018589595e+03  2.0018589595e+03  0.0000000000e+00 0. 9.
        6     2     1     2   103     0  1.2553896410e+02 -1.7879282997e+02 -1.6461751802e+03  1.6695917265e+03  1.7296503020e+02  9.658607e-14 9.
       -6     2     1     2     0   102 -1.2553896410e+02  1.7879282997e+02 -2.8812872418e+02  3.9982228821e+02  1.7062471362e+02  1.580708e-14 9.
       24     2     3     0     0     0  1.3293232854e+02 -1.0720852422e+02 -8.7408774316e+02  8.9414280805e+02  7.9355571962e+01  2.547761e-14 9.
        5     1     3     0   103     0 -7.3933644412e+00 -7.1584305754e+01 -7.7208743703e+02  7.7544891842e+02  4.8000000000e+00 0. 9.
      -24     2     4     0     0     0  5.8825092449e+00  7.3769442521e+01 -1.2106533006e+02  1.6268365108e+02  7.9577770897e+01  2.083419e-13 9.
       -5     1     4     0     0   102 -1.3142147334e+02  1.0502338745e+02 -1.6706339412e+02  2.3713863713e+02  4.8000000000e+00 0. 9.
       -3     1     5     0     0   104  4.1550200484e+01 -7.1433806101e+01 -5.2719909566e+02  5.3363690303e+02  5.0000000000e-01 0. 9.
        4     1     5     0   104     0  9.1382128057e+01 -3.5774718114e+01 -3.4688864750e+02  3.6050590502e+02  1.5000000000e+00 0. 9.
        3     1     7     0   105     0 -7.9039165223e+00  1.0683256431e+01  9.9514339011e+00  1.6609783293e+01  5.0000000000e-01 0. 9.
       -4     1     7     0     0   105  1.3786425767e+01  6.3086186090e+01 -1.3101676396e+02  1.4607386779e+02  1.5000000000e+00 0. 9.
#pdf   21   21  1.039309e-02  3.079783e-01  2.771997e+02  7.895429e+00  8.624766e-02
</event>
<event>
    12  9999  1.000000e+00  1.897292e+02  7.882979e-03  1.064160e-01
       21    -1     0     0   101   102  0.0000000000e+00  0.0000000000e+00  1.9725524375e+02  1.9725524375e+02  0.0000000000e+00 0. 9.
       21    -1     0     0   103   101  0.0000000000e+00  0.0000000000e+00 -1.8436752065e+02  1.8436752065e+02  0.0000000000e+00 0. 9.
        6     2     1     2   103     0  4.3815748045e+01 -6.6419010243e+01  2.5664062818e+01  1.9079931946e+02  1.7150635991e+02  1.116633e-13 9.
       -6     2     1     2     0   102 -4.3815748045e+01  6.6419010243e+01 -1.2776339721e+01  1.9082344494e+02  1.7297123340e+02  6.107300e-14 9.
       24     2     3     0     0     0 -1.9992868545e+01 -1.8893293258e+01 -3.5398874910e+01  9.0390377182e+01  7.8489926866e+01  3.010502e-13 9.
        5     1     3     0   103     0  6.3808616590e+01 -4.7525716984e+01  6.1062937728e+01  1.0040894228e+02  4.8000000000e+00 0. 9.
      -24     2     4     0     0     0  1.2926423060e+01 -1.7365320556e+01  5.6662405538e+00  8.7854241601e+01  8.4956546035e+01  1.025875e-14 9.
       -5     1     4     0     0   102 -5.6742171105e+01  8.3784330799e+01 -1.8442580275e+01  1.0296920334e+02  4.8000000000e+00 0. 9.
       -3     1     5     0     0   104  2.6558466887e+01 -1.4428596147e+01  2.2820292181e+00  3.0314917244e+01  5.0000000000e-01 0. 9.
        4     1     5     0   104     0 -4.6551335432e+01 -4.4646971118e+00 -3.7680904128e+01  6.0075459938e+01  1.5000000000e+00 0. 9.
        1     1     7     0   105     0  1.3995682527e+01 -1.1108533419e+01  4.4786749799e+01  4.8220747626e+01  3.3000000000e-01 0. 9.
       -2     1     7     0     0   105 -1.0692594668e+00 -6.2567871370e+00 -3.9120509245e+01  3.9633493975e+01  3.3000000000e-01 0. 9.
#pdf   21   21  3.034696e-02  2.836423e-02  1.890654e+02  3.164405e+00  3.372628e+00
</event>
<event>
    12  9999  1.000000e+00  1.917290e+02  7.883924e-03  1.062799e-01
       -2    -1     0     0     0   101  0.0000000000e+00  0.0000000000e+00  2.4501224374e+02  2.4501224374e+02  0.0000000000e+00 0. 9.
        2    -1     0     0   102     0  0.0000000000e+00  0.0000000000e+00 -5.4374130835e+02  5.4374130835e+02  0.0000000000e+00 0. 9.
       -6     2     1     2     0   101 -8.7141463688e+01 -3.4784498467e+00 -4.8499338447e+02  5.2159136757e+02  1.7097730093e+02  3.205232e-14 9.
        6     2     1     2   102     0  8.7141463688e+01  3.4784498467e+00  1.8626431986e+02  2.6716218452e+02  1.7051540012e+02  3.667936e-14 9.
      -24     2     3     0     0     0 -3.4023935702e+01 -1.5990685860e+01 -1.0481239132e+02  1.3748375845e+02  8.0640041097e+01  3.050352e-14 9.
       -5     1     3     0     0   101 -5.3117527985e+01  1.2512236013e+01 -3.8018099315e+02  3.8410760911e+02  4.8000000000e+00 0. 9.
       24     2     4     0     0     0 -1.6437309972e+01 -1.4490528015e+00  5.9938251165e+01  1.0365634895e+02  8.2944317533e+01  1.711342e-13 9.
        5     1     4     0   102     0  1.0357877366e+02  4.9275026482e+00  1.2632606870e+02  1.6350583558e+02  4.8000000000e+00 0. 9.
        1     1     5     0   103     0 -2.2803916335e+01  2.2888733214e+01 -9.1003621541e+00  3.3568410741e+01  3.3000000000e-01 0. 9.
       -2     1     5     0     0   103 -1.1220019368e+01 -3.8879419074e+01 -9.5712029169e+01  1.0391534771e+02  3.3000000000e-01 0. 9.
       -3     1     7     0     0   104 -2.3857149317e+01  2.2820989442e+01 -5.4815322685e+00  3.3470260361e+01  5.0000000000e-01 0. 9.
        4     1     7     0   104     0  7.4198393449e+00 -2.4270042243e+01  6.5419783433e+01  7.0186088585e+01  1.5000000000e+00 0. 9.
#pdf   -2    2  3.769419e-02  8.365251e-02  1.915235e+02  2.028968e-01  5.936901e-01
</event>
<event>
    12  9999  1.000000e+00  2.273076e+02  7.899296e-03  1.041183e-01
       21    -1     0     0   101   102  0.0000000000e+00  0.0000000000e+00  1.4209099966e+02  1.4209099966e+02  0.0000000000e+00 0. 9.
       21    -1     0     0   103   101  0.0000000000e+00  0.0000000000e+00 -8.2837116547e+02  8.2837116547e+02  0.0000000000e+00 0. 9.
        6     2     1     2   103     0  1.0721147034e+02  1.0360838112e+02 -7.0709200701e+02  7.4296513755e+02  1.7259517152e+02  3.193389e-14 9.
       -6     2     1     2     0   102 -1.0721147034e+02 -1.0360838112e+02  2.0811841202e+01  2.2749702758e+02  1.7056602479e+02  2.111450e-14 9.
       24     2     3     0     0     0  3.8431030741e+01  6.9006248471e+01 -2.2959970417e+02  2.5928136097e+02  9.0950500502e+01  8.728876e-15 9.
        5     1     3     0   103     0  6.8780439595e+01  3.4602132647e+01 -4.7749230284e+02  4.8368377658e+02  4.8000000000e+00 0. 9.
      -24     2     4     0     0     0 -7.2472303429e+01 -1.1957396070e+02  6.0552154935e+01  1.7214323833e+02  8.0103459298e+01  1.129896e-13 9.
       -5     1     4     0     0   102 -3.4739166907e+01  1.5965579585e+01 -3.9740313733e+01  5.5353789251e+01  4.8000000000e+00 0. 9.
       -1     1     5     0     0   104 -2.2107124084e+01  4.1080711671e+01 -5.3499568427e+01  7.0983537025e+01  3.3000000000e-01 0. 9.
        2     1     5     0   104     0  6.0538154825e+01  2.7925536800e+01 -1.7610013574e+02  1.8829782395e+02  3.3000000000e-01 0. 9.
       13     1     7     0     0     0 -2.3215153767e+01 -7.0202767842e+01 -7.9733514120e+00  7.4370407246e+01  1.0566000000e-01  2.613802e+04 9.
      -14     1     7     0     0     0 -4.9257149662e+01 -4.9371192861e+01  6.8525506347e+01  9.7772831080e+01  0.0000000000e+00 0. 9.
#pdf   21   21  2.186015e-02  1.274417e-01  2.265431e+02  4.253978e+00  5.677703e-01
</event>
<event>
    12  9999  1.000000e+00  2.680352e+02  7.914236e-03  1.021087e-01
        1    -1     0     0   101     0  0.0000000000e+00  0.0000000000e+00  5.4443703479e+02  5.4443703479e+02  0.0000000000e+00 0. 9.
       -1    -1     0     0     0   102  0.0000000000e+00  0.0000000000e+00 -1.9027211772e+02  1.9027211772e+02  0.0000000000e+00 0. 9.
        6     2     1     2   101     0 -8.2642224756e-01 -2.0716473261e+02 -2.6306887333e+01  2.6927856350e+02  1.7000289124e+02  1.403228e-13 9.
       -6     2     1     2     0   102  8.2642224756e-01  2.0716473261e+02  3.8047180441e+02  4.6543058901e+02  1.7014385037e+02  1.005062e-14 9.
       24     2     3     0     0     0 -6.1138643634e+01 -1.6457691898e+02 -2.9478819774e+01  1.9522191576e+02  8.0119283408e+01  1.249735e-13 9.
        5     1     3     0   101     0  6.0312221387e+01 -4.2587813635e+01  3.1719324414e+00  7.4056647738e+01  4.8000000000e+00 0. 9.
      -24     2     4     0     0     0  1.7938844989e+01  1.4529159515e+02  1.4629509470e+02  2.2256665277e+02  8.1867028851e+01  4.371274e-14 9.
       -5     1     4     0     0   102 -1.7112422741e+01  6.1873137461e+01  2.3417670971e+02  2.4286393624e+02  4.8000000000e+00 0. 9.
       -3     1     5     0     0   103 -2.6187986263e+01 -2.0072852367e+00  3.7591562503e-01  2.6272250210e+01  5.0000000000e-01 0. 9.
        4     1     5     0   103     0 -3.4950657371e+01 -1.6256963374e+02 -2.9854735399e+01  1.6894966555e+02  1.5000000000e+00 0. 9.
       15     1     7     0     0     0 -2.5690631338e+01  4.8982457553e+01  8.1659231101e+01  9.8644192935e+01  1.7768200000e+00  4.830921e-02 9.
      -16     1     7     0     0     0  4.3629476327e+01  9.6309137597e+01  6.4635863596e+01  1.2392245984e+02  0.0000000000e+00 0. 9.
#pdf    1   -1  8.375954e-02  2.927263e-02  2.679905e+02  3.697813e-01  2.861781e-01
</event>
<event>
    12  9999  1.000000e+00  1.815182e+02  7.878995e-03  1.069943e-01
       21    -1     0     0   101   102  0.0000000000e+00  0.0000000000e+00  4.3070977991e+02  4.3070977991e+02  0.0000000000e+00 0. 9.
       21    -1     0     0   102   103  0.0000000000e+00  0.0000000000e+00 -3.0594778253e+02  3.0594778253e+02  0.0000000000e+00 0. 9.
        6     2     1     2   101     0 -3.8260181431e+01  5.0387318232e+01  3.8129361043e+02  4.2199805801e+02  1.6939545534e+02  1.120185e-13 9.
       -6     2     1     2     0   103  3.8260181431e+01 -5.0387318232e+01 -2.5653161305e+02  3.1465950443e+02  1.7087835412e+02  1.103296e-13 9.
       24     2     3     0     0     0 -6.8131048883e-01 -2.9755831988e+01  2.4486229105e+02  2.5929697942e+02  7.9946908856e+01  3.784760e-14 9.
        5     1     3     0   101     0 -3.7578870942e+01  8.0143150219e+01  1.3643131938e+02  1.6270107859e+02  4.8000000000e+00 0. 9.
      -24     2     4     0     0     0 -2.7679166092e+01  2.9417932558e+00 -7.3760655035e+01  1.1311483251e+02  8.1114368141e+01  2.981445e-13 9.
       -5     1     4     0     0   103  6.5939347523e+01 -5.3329111488e+01 -1.8277095802e+02  2.0154467192e+02  4.8000000000e+00 0. 9.
       -3     1     5     0     0   104 -5.8382603224e+00 -2.8381750629e+00 -4.8261007376e+00  8.1044290119e+00  5.0000000000e-01 0. 9.
        4     1     5     0   104     0  5.1569498335e+00 -2.6917656925e+01  2.4968839179e+02  2.5119255041e+02  1.5000000000e+00 0. 9.
        1     1     7     0   105     0  8.6711261228e+00 -1.9536643190e+01 -6.6386031073e+01  6.9742977259e+01  3.3000000000e-01 0. 9.
       -2     1     7     0     0   105 -3.6350292215e+01  2.2478436445e+01 -7.3746239629e+00  4.3371855249e+01  3.3000000000e-01 0. 9.
#pdf   21   21  6.626304e-02  4.706889e-02  1.808246e+02  1.391644e+00  2.040678e+00
</event>
<event>
    12  9999  1.000000e+00  1.808311e+02  7.878654e-03  1.070442e-01
        2    -1     0     0   101     0  0.0000000000e+00  0.0000000000e+00  4.8512496907e+02  4.8512496907e+02  0.0000000000e+00 0. 9.
       -2    -1     0     0     0   102  0.0000000000e+00  0.0000000000e+00 -8.6384485934e+01  8.6384485934e+01  0.0000000000e+00 0. 9.
        6     2     1     2   101     0  4.5578331764e+01 -3.2810394573e+01  6.4211203769e+01  1.9054600819e+02  1.7038426051e+02  1.730369e-13 9.
       -6     2     1     2     0   102 -4.5578331764e+01  3.2810394573e+01  3.3452927937e+02  3.8096344682e+02  1.7340531347e+02  4.337021e-14 9.
       24     2     3     0     0     0 -5.5007135772e+00 -7.6522132924e+01  5.4344712280e+01  1.2242719583e+02  7.8416680934e+01  1.381100e-14 9.
        5     1     3     0   101     0  5.1079045342e+01  4.3711738351e+01  9.8664914892e+00  6.8118812358e+01  4.8000000000e+00 0. 9.
      -24     2     4     0     0     0 -6.6892292618e+01 -3.0178850306e+01  2.5111471314e+02  2.7417880486e+02  8.2037040815e+01  1.386335e-14 9.
       -5     1     4     0     0   102  2.1313960854e+01  6.2989244879e+01  8.3414566231e+01  1.0678464195e+02  4.8000000000e+00 0. 9.
       -1     1     5     0     0   103 -2.8919205090e+01 -5.6023221629e+00  3.4064728674e+01  4.5035775516e+01  3.3000000000e-01 0. 9.
        2     1     5     0   103     0  2.3418491513e+01 -7.0919810761e+01  2.0279983606e+01  7.7391420313e+01  3.3000000000e-01 0. 9.
       15     1     7     0     0     0  4.8397007940e+00  2.0887349102e+01  6.0436323570e+01  6.4151464148e+01  1.7768200000e+00  2.263395e-01 9.
      -16     1     7     0     0     0 -7.1731993412e+01 -5.1066199409e+01  1.9067838957e+02  2.1002734072e+02  0.0000000000e+00 0. 9.
#pdf    2   -2  7.463461e-02  1.328992e-02  1.794010e+02  6.022509e-01  4.372346e-01
</event>
<event>
    12  9999  1.000000e+00  3.196350e+02  7.930258e-03  1.000469e-01
       21    -1     0     0   101   102  0.0000000000e+00  0.0000000000e+00  1.0768367822e+03  1.0768367822e+03  0.0000000000e+00 0. 9.
       21    -1     0     0   103   101  0.0000000000e+00  0.0000000000e+00 -2.6783234821e+02  2.6783234821e+02  0.0000000000e+00 0. 9.
        6     2     1     2   103     0  1.1146892541e+02  2.4672055919e+02 -1.3594721687e+02  3.4700292184e+02  1.6921296149e+02  5.720146e-13 9.
       -6     2     1     2     0   102 -1.1146892541e+02 -2.4672055919e+02  9.4495165085e+02  9.9766620856e+02  1.7061033265e+02  8.380093e-14 9.
       24     2     3     0     0     0  1.1650674132e+02  2.4954698365e+02 -8.8599336507e+01  2.9906306327e+02  7.5771733282e+01  4.021931e-15 9.
        5     1     3     0   103     0 -5.0378159101e+00 -2.8264244653e+00 -4.7347880363e+01  4.7939858566e+01  4.8000000000e+00 0. 9.
      -24     2     4     0     0     0 -1.2848566127e+02 -1.3141329038e+02  6.1036484504e+02  6.4332639122e+02  8.6865318332e+01  7.515360e-14 9.
       -5     1     4     0     0   102  1.7016735860e+01 -1.1530726880e+02  3.3458680581e+02  3.5433981735e+02  4.8000000000e+00 0. 9.
      -13     1     5     0     0     0  8.9615838138e+01  1.9925171662e+02 -1.0100705071e+02  2.4069624110e+02  1.0566000000e-01  6.816442e+05 9.
       14     1     5     0     0     0  2.6890903178e+01  5.0295267029e+01  1.2407714202e+01  5.8366822177e+01  0.0000000000e+00 0. 9.
        3     1     7     0   104     0 -3.0612160066e+01  4.3377663809e+00  5.2833020452e+01  6.1216816408e+01  5.0000000000e-01 0. 9.
       -4     1     7     0     0   104 -9.7873501200e+01 -1.3575105677e+02  5.5753182459e+02  5.8210957481e+02  1.5000000000e+00 0. 9.
#pdf   21   21  1.656672e-01  4.120498e-02  3.192638e+02  3.520030e-01  2.273677e+00
</event>
<event>
    12  9999  1.000000e+00  1.833362e+02  7.879892e-03  1.068635e-01
       21    -1     0     0   101   102  0.0000000000e+00  0.0000000000e+00  1.3974152271e+02  1.3974152271e+02  0.0000000000e+00 0. 9.
       21    -1     0     0   103   101  0.0000000000e+00  0.0000000000e+00 -2.5829512551e+02  2.5829512551e+02  0.0000000000e+00 0. 9.
        6     2     1     2   103     0 -5.8587129381e+01 -3.2637023781e+01 -1.1145120433e+02  2.1450343324e+02  1.7056589599e+02  1.896043e-15 9.
       -6     2     1     2     0   102  5.8587129381e+01  3.2637023781e+01 -7.1023984754e+00  1.8353321498e+02  1.7069378983e+02  1.428612e-13 9.
       24     2     3     0     0     0  1.8033753177e+01  2.4243461941e+01 -6.6243523993e+01  1.0880138188e+02  8.0849084891e+01  7.526645e-14 9.
        5     1     3     0   103     0 -7.6620882558e+01 -5.6880485722e+01 -4.5207680333e+01  1.0570205136e+02  4.8000000000e+00 0. 9.
      -24     2     4     0     0     0  9.2549910764e+01  4.9721524851e+01 -3.3825699827e+01  1.3681570723e+02  8.0849513042e+01  2.974780e-14 9.
       -5     1     4     0     0   102 -3.3962781383e+01 -1.7084501070e+01  2.6723301351e+01  4.6717507759e+01  4.8000000000e+00 0. 9.
       -1     1     5     0     0   104 -1.0589713914e+01 -1.2030993632e+01  1.0540120768e+01  1.9185668983e+01  3.3000000000e-01 0. 9.
        2     1     5     0   104     0  2.8623467091e+01  3.6274455573e+01 -7.6783644761e+01  8.9615712898e+01  3.3000000000e-01 0. 9.
        1     1     7     0   105     0 -8.5616584375e+00  2.5711104523e+01  1.2562471931e+00  2.7130240470e+01  3.3000000000e-01 0. 9.
       -2     1     7     0     0   105  1.0111156920e+02  2.4010420328e+01 -3.5081947020e+01  1.0968546676e+02  3.3000000000e-01 0. 9.
#pdf   21   21  2.149870e-02  3.973771e-02  1.832767e+02  4.338398e+00  2.431675e+00
</event>
<event>
    12  9999  1.000000e+00  2.110170e+02  7.892573e-03  1.050516e-01
       -2    -1     0     0     0   101  0.0000000000e+00  0.0000000000e+00  2.7597665596e+02  2.7597665596e+02  0.0000000000e+00 0. 9.
        2    -1     0     0   102     0  0.0000000000e+00  0.0000000000e+00 -1.6456811820e+02  1.6456811820e+02  0.0000000000e+00 0. 9.
       -6     2     1     2     0   101  8.8353755255e+01  8.4386041725e+01  2.5400021707e+01  2.1429349917e+02  1.7421008173e+02  1.094451e-13 9.
        6     2     1     2   102     0 -8.8353755255e+01 -8.4386041725e+01  8.6008516053e+01  2.2625127499e+02  1.6989639341e+02  7.144869e-14 9.
      -24     2     3     0     0     0  4.2477746933e+01  9.7152295978e+01 -3.5043933743e+01  1.3719552813e+02  7.9696976408e+01  4.736297e-13 9.
       -5     1     3     0     0   101  4.5876008323e+01 -1.2766254253e+01  6.0443955450e+01  7.7097971035e+01  4.8000000000e+00 0. 9.
       24     2     4     0     0     0  1.0067561687e+01 -1.9758352123e+00  4.5228181508e+01  9.1476375797e+01  7.8848457203e+01  1.978405e-13 9.
        5     1     4     0   102     0 -9.8421316943e+01 -8.2410206512e+01  4.0780334545e+01  1.3477489919e+02  4.8000000000e+00 0. 9.
        3     1     5     0   103     0  1.0409902727e+01  7.2573808867e+00  2.2428109314e+01  2.5774129268e+01  5.0000000000e-01 0. 9.
       -4     1     5     0     0   103  3.2067844206e+01  8.9894915091e+01 -5.7472043057e+01  1.1142139886e+02  1.5000000000e+00 0. 9.
      -11     1     7     0     0     0 -1.9568294391e+00  3.2368663645e+01 -1.2453186711e+00  3.2451662306e+01  5.1100000000e-04 0. 9.
       12     1     7     0     0     0  1.2024391127e+01 -3.4344498857e+01  4.6473500180e+01  5.9024713491e+01  0.0000000000e+00 0. 9.
#pdf   -2    2  4.245795e-02  2.531817e-02  2.092658e+02  1.822059e-01  6.604484e-01
</event>
<event>
    12  9999  1.000000e+00  3.290534e+02  7.932907e-03  9.971489e-02
       21    -1     0     0   101   102  0.0000000000e+00  0.0000000000e+00  4.1741524568e+02  4.1741524568e+02  0.0000000000e+00 0. 9.
       21    -1     0     0   103   101  0.0000000000e+00  0.0000000000e+00 -4.4929313689e+02  4.4929313689e+02  0.0000000000e+00 0. 9.
        6     2     1     2   103     0  2.8059088265e+02  2.2515195148e+01 -2.9767547102e+02  4.4383430759e+02  1.7070450817e+02  8.468570e-15 9.
       -6     2     1     2     0   102 -2.8059088265e+02 -2.2515195148e+01  2.6579757981e+02  4.2287407497e+02  1.7010570953e+02  1.322147e-13 9.
       24     2     3     0     0     0  2.6041494488e+02  6.5450074102e+01 -2.6765705995e+02  3.8749056527e+02  8.0056109799e+01  2.134185e-13 9.
        5     1     3     0   103     0  2.0175937769e+01 -4.2934878954e+01 -3.0018411070e+01  5.6343742322e+01  4.8000000000e+00 0. 9.
      -24     2     4     0     0     0 -2.3262546987e+02 -2.5173059291e+01  1.3199823102e+02  2.8063114614e+02  8.1129618816e+01  1.238146e-13 9.
       -5     1     4     0     0   102 -4.7965412782e+01  2.6578641433e+00  1.3379934879e+02  1.4224292883e+02  4.8000000000e+00 0. 9.
       -1     1     5     0     0   104  2.2830750546e+01  3.3396988166e+01 -3.8970178798e+01  5.6172820159e+01  3.3000000000e-01 0. 9.
        2     1     5     0   104     0  2.3758419433e+02  3.2053085936e+01 -2.2868688115e+02  3.3131774511e+02  3.3000000000e-01 0. 9.
       13     1     7     0     0     0 -3.9440700779e+01 -1.7746562792e+01 -5.2102481532e+00  4.3562222380e+01  1.0566000000e-01  4.776186e+05 9.
      -14     1     7     0     0     0 -1.9318476909e+02 -7.4264964996e+00  1.3720847917e+02  2.3706892376e+02  0.0000000000e+00 0. 9.
#pdf   21   21  6.421773e-02  6.912202e-02  3.288984e+02  1.378650e+00  1.260667e+00
</event>
<event>
    12  9999  1.000000e+00  2.435969e+02  7.905563e-03  1.032647e-01
       21    -1     0     0   101   102  0.0000000000e+00  0.0000000000e+00  1.5763196989e+02  1.5763196989e+02  0.0000000000e+00 0. 9.
       21    -1     0     0   102   103  0.0000000000e+00  0.0000000000e+00 -4.5912070103e+02  4.5912070103e+02  0.0000000000e+00 0. 9.
        6     2     1     2   101     0  1.7172400054e+02 -2.7664629288e+01 -1.9667244245e+01  2.4396411021e+02  1.6993299415e+02  1.412256e-13 9.
       -6     2     1     2     0   103 -1.7172400054e+02  2.7664629288e+01 -2.8182148690e+02  3.7278856070e+02  1.7115342952e+02  9.580623e-15 9.
       24     2     3     0     0     0  1.1073263007e+02  4.7607116968e+01 -2.2807849573e+01  1.4691419286e+02  8.0842000922e+01  2.196988e-13 9.
        5     1     3     0   101     0  6.0991370477e+01 -7.5271746256e+01  3.1406053284e+00  9.7049917356e+01  4.8000000000e+00 0. 9.
      -24     2     4     0     0     0 -5.7492645552e+01  2.6766191204e+01 -2.2028417667e+02  2.4294446109e+02  8.0467753776e+01  1.145544e-13 9.
       -5     1     4     0     0   103 -1.1423135499e+02  8.9843808402e-01 -6.1537310221e+01  1.2984409961e+02  4.8000000000e+00 0. 9.
       -3     1     5     0     0   104  4.4638872519e+01 -1.4837201617e+01 -2.9831794586e+01  5.5704196070e+01  5.0000000000e-01 0. 9.
        4     1     5     0   104     0  6.6093757547e+01  6.2444318585e+01  7.0239450128e+00  9.1209996786e+01  1.5000000000e+00 0. 9.
        3     1     7     0   105     0 -6.8638655012e+01  4.2365825599e-01 -1.1589727106e+02  1.3469919037e+02  5.0000000000e-01 0. 9.
       -4     1     7     0     0   105  1.1146009460e+01  2.6342532948e+01 -1.0438690561e+02  1.0824527072e+02  1.5000000000e+00 0. 9.
#pdf   21   21  2.425107e-02  7.063395e-02  2.431701e+02  3.866006e+00  1.258331e+00
</event>
<event>
    12  9999  1.000000e+00  2.050216e+02  7.889970e-03  1.054179e-01
       21    -1     0     0   101   102  0.0000000000e+00  0.0000000000e+00  9.3360935599e+02  9.3360935599e+02  0.0000000000e+00 0. 9.
       21    -1     0     0   103   101  0.0000000000e+00  0.0000000000e+00 -4.5028047179e+01  4.5028047179e+01  0.0000000000e+00 0. 9.
        6     2     1     2   103     0 -9.4590423758e+01 -6.2240281973e+01  4.4921463341e+02  4.9373738136e+02  1.7076771921e+02  4.773170e-13 9.
       -6     2     1     2     0   102  9.4590423758e+01  6.2240281973e+01  4.3936667540e+02  4.8490002180e+02  1.7106652134e+02  3.074652e-14 9.
       24     2     3     0     0     0 -4.0511358651e+01  2.0362230948e+01  3.0873171001e+02  3.2196365756e+02  7.9306603731e+01  5.902040e-15 9.
        5     1     3     0   103     0 -5.4079065107e+01 -8.2602512921e+01  1.4048292340e+02  1.7177372381e+02  4.8000000000e+00 0. 9.
      -24     2     4     0     0     0  1.1510015049e+02  9.1559524320e+01  3.3673042000e+02  3.7609971029e+02  8.0202401392e+01  4.576205e-15 9.
       -5     1     4     0     0   102 -2.0509726733e+01 -2.9319242347e+01  1.0263625540e+02  1.0880031151e+02  4.8000000000e+00 0. 9.
      -13     1     5     0     0     0  1.2783347633e+01 -6.9797249243e+00  1.0962628096e+01  1.8229671295e+01  1.0566000000e-01  1.444804e+05 9.
       14     1     5     0     0     0 -5.3294706284e+01  2.7341955873e+01  2.9776908191e+02  3.0373398626e+02  0.0000000000e+00 0. 9.
        1     1     7     0   104     0  5.2376426698e+00  2.3090774370e+01  1.2061206567e+01  2.6574393043e+01  3.3000000000e-01 0. 9.
       -2     1     7     0     0   104  1.0986250782e+02  6.8468749949e+01  3.2466921343e+02  3.4952531724e+02  3.3000000000e-01 0. 9.
#pdf   21   21  1.436322e-01  6.927392e-03  2.048971e+02  4.770491e-01  1.068613e+01
</event>
<event>
    12  9999  1.000000e+00  1.967193e+02  7.886241e-03  1.059478e-01
       21    -1     0     0   101   102  0.0000000000e+00  0.0000000000e+00  1.1385558539e+03  1.1385558539e+03  0.0000000000e+00 0. 9.
       21    -1     0     0   103   101  0.0000000000e+00  0.0000000000e+00 -4.0445261942e+01  4.0445261942e+01  0.0000000000e+00 0. 9.
        6     2     1     2   103     0 -2.0148831949e+01  9.4913573095e+01  7.8396565064e+02  8.0820653401e+02  1.7082475945e+02  1.502037e-13 9.
       -6     2     1     2     0   102  2.0148831949e+01 -9.4913573095e+01  3.1414494133e+02  3.7079458185e+02  1.7142641563e+02  6.729368e-13 9.
       24     2     3     0     0     0 -4.1303559756e+01  6.4415574061e+01  7.4828010580e+02  7.5649436364e+02  8.0655162574e+01  3.321040e-13 9.
        5     1     3     0   103     0  2.1154727807e+01  3.0497999035e+01  3.5685544839e+01  5.1712170368e+01  4.8000000000e+00 0. 9.
      -24     2     4     0     0     0  2.7883782436e+01  1.1953143336e+01  1.0619498381e+02  1.3681477637e+02  8.0749770820e+01  1.815801e-13 9.
       -5     1     4     0     0   102 -7.7349504876e+00 -1.0686671643e+02  2.0794995752e+02  2.3397980548e+02  4.8000000000e+00 0. 9.
      -11     1     5     0     0     0 -2.8829427461e+01  2.1251522012e+01  9.2729768912e+01  9.9406102018e+01  5.1100000000e-04 0. 9.
       12     1     5     0     0     0 -1.2474132295e+01  4.3164052049e+01  6.5555033689e+02  6.5708826162e+02  0.0000000000e+00 0. 9.
        3     1     7     0   104     0 -4.7479010960e+00  1.8080086885e+01  1.0154836714e+02  1.0325576485e+02  5.0000000000e-01 0. 9.
       -4     1     7     0     0   104  3.2631683532e+01 -6.1269435492e+00  4.6466166713e+00  3.3559011516e+01  1.5000000000e+00 0. 9.
#pdf   21   21  1.751624e-01  6.222348e-03  1.964578e+02  3.430056e-01  1.153474e+01
</event>
<event>
    12  9999  1.000000e+00  2.330743e+02  7.901563e-03  1.038077e-01
       21    -1     0     0   101   102  0.0000000000e+00  0.0000000000e+00  7.8734228178e+02  7.8734228178e+02  0.0000000000e+00 0. 9.
       21    -1     0     0   103   101  0.0000000000e+00  0.0000000000e+00 -7.3663800180e+01  7.3663800180e+01  0.0000000000e+00 0. 9.
        6     2     1     2   103     0 -3.3992403706e+01 -1.5494606842e+02  2.4834583131e+02  3.4052604921e+02  1.7064164389e+02  1.872050e-13 9.
       -6     2     1     2     0   102  3.3992403706e+01  1.5494606842e+02  4.6533265029e+02  5.2048003276e+02  1.7088364884e+02  9.086018e-14 9.
       24     2     3     0     0     0 -5.6560298786e+01 -3.2627087826e+01  1.4676533753e+02  1.7986217766e+02  8.0911954586e+01  1.219636e-13 9.
        5     1     3     0   103     0  2.2567895081e+01 -1.2231898060e+02  1.0158049378e+02  1.6066387155e+02  4.8000000000e+00 0. 9.
      -24     2     4     0     0     0 -2.6067720995e+01  1.0217599304e+02  3.8557787740e+02  4.0745011090e+02  7.8903952380e+01  1.166071e-14 9.
       -5     1     4     0     0   102  6.0060124701e+01  5.2770075386e+01  7.9754772889e+01  1.1302992185e+02  4.8000000000e+00 0. 9.
       -3     1     5     0     0   104  1.5631476091e-01  1.8827985404e+01  6.2820020016e+00  1.9855251644e+01  5.0000000000e-01 0. 9.
        4     1     5     0   104     0 -5.6716613547e+01 -5.1455073230e+01  1.4048333553e+02  1.6000692602e+02  1.5000000000e+00 0. 9.
       15     1     7     0     0     0  2.6691513253e+01  2.4650731194e+01  8.1706047546e+01  8.9437859562e+01  1.7768200000e+00  3.107809e-02 9.
      -16     1     7     0     0     0 -5.2759234248e+01  7.7525261844e+01  3.0387182986e+02  3.1801225134e+02  0.0000000000e+00 0. 9.
#pdf   21   21  1.211296e-01  1.133289e-02  2.329857e+02  6.109424e-01  7.370600e+00
</event>
<event>
    12  9999  1.000000e+00  1.886885e+02  7.882484e-03  1.064876e-01
       21    -1     0     0   101   102  0.0000000000e+00  0.0000000000e+00  5.5649348494e+01  5.5649348494e+01  0.0000000000e+00 0. 9.
       21    -1     0     0   103   101  0.0000000000e+00  0.0000000000e+00 -7.3404837376e+02  7.3404837376e+02  0.0000000000e+00 0. 9.
        6     2     1     2   103     0 -4.0204152057e+01 -6.5648995029e+01 -1.9669591913e+02  2.7212098419e+02  1.7156450985e+02  9.009971e-14 9.
       -6     2     1     2     0   102  4.0204152057e+01  6.5648995029e+01 -4.8170310613e+02  5.1757673807e+02  1.7297870661e+02  1.075460e-13 9.
       24     2     3     0     0     0 -3.0232310931e+01 -9.9691546827e+01 -9.0100928456e+01  1.5967604217e+02  8.0782819957e+01  5.113990e-14 9.
        5     1     3     0   103     0 -9.9718411265e+00  3.4042551798e+01 -1.0659499068e+02  1.1244494202e+02  4.8000000000e+00 0. 9.
      -24     2     4     0     0     0  8.0492223362e+01  5.1081590406e+01 -2.2376696491e+02  2.5606300819e+02  8.0051749996e+01  7.677502e-14 9.
       -5     1     4     0     0   102 -4.0288071305e+01  1.4567404623e+01 -2.5793614122e+02  2.6151372988e+02  4.8000000000e+00 0. 9.
      -13     1     5     0     0     0 -2.7304613236e+00 -9.9485548974e+01 -8.6648485586e+01  1.3195757308e+02  1.0566000000e-01  3.452708e+04 9.
       14     1     5     0     0     0 -2.7501849607e+01 -2.0599785307e-01 -3.4524428702e+00  2.7718469090e+01  0.0000000000e+00 0. 9.
       15     1     7     0     0     0  7.5340846567e+01  1.9465538809e+01 -2.0418866143e+02  2.1852074709e+02  1.7768200000e+00  3.198302e-02 9.
      -16     1     7     0     0     0  5.1513767952e+00  3.1616051598e+01 -1.9578303487e+01  3.7542261105e+01  0.0000000000e+00 0. 9.
#pdf   21   21  8.561438e-03  1.129305e-01  1.880440e+02  9.123529e+00  6.942233e-01
</event>
<event>
    12  9999  1.000000e+00  1.799419e+02  7.878210e-03  1.071091e-01
       21    -1     0     0   101   102  0.0000000000e+00  0.0000000000e+00  5.9008399175e+02  5.9008399175e+02  0.0000000000e+00 0. 9.
       21    -1     0     0   102   103  0.0000000000e+00  0.0000000000e+00 -6.5166868639e+01  6.5166868639e+01  0.0000000000e+00 0. 9.
        6     2     1     2   101     0  1.8814928999e+01 -5.0716877246e+01  3.9340769351e+02  4.3285641049e+02  1.7224649660e+02  2.247210e-13 9.
       -6     2     1     2     0   103 -1.8814928999e+01  5.0716877246e+01  1.3150942960e+02  2.2239444990e+02  1.7099227493e+02  1.077082e-14 9.
       24     2     3     0     0     0  1.0264789967e+01  2.7139165286e+01  1.0648231256e+02  1.3539400535e+02  7.8429290385e+01  2.118204e-13 9.
        5     1     3     0   101     0  8.5501390317e+00 -7.7856042532e+01  2.8692538095e+02  2.9746240514e+02  4.8000000000e+00 0. 9.
      -24     2     4     0     0     0 -1.8074608665e+01  4.9993020418e+01  1.6357414298e+02  1.8995592517e+02  8.0627288725e+01  3.030639e-14 9.
       -5     1     4     0     0   103 -7.4032033410e-01  7.2385682811e-01 -3.2064713379e+01  3.2438524735e+01  4.8000000000e+00 0. 9.
      -15     1     5     0     0     0 -9.3397177486e+00  4.1876621230e+01  2.3685972101e+01  4.9041452843e+01  1.7768200000e+00  3.145913e-01 9.
       16     1     5     0     0     0  1.9604507716e+01 -1.4737455944e+01  8.2796340461e+01  8.6352552506e+01  0.0000000000e+00 0. 9.
       11     1     7     0     0     0 -1.9304787128e+01 -1.5088206212e+01  1.7726170893e+01  3.0241460076e+01  5.1100000000e-04 0. 9.
      -12     1     7     0     0     0  1.2301784629e+00  6.5081226630e+01  1.4584797209e+02  1.5971446509e+02  0.0000000000e+00 0. 9.
#pdf   21   21  9.078215e-02  1.002567e-02  1.793448e+02  9.412995e-01  8.090705e+00
</event>
<event>
    12  9999  1.000000e+00  1.750042e+02  7.875707e-03  1.074768e-01
       21    -1     0     0   101   102  0.0000000000e+00  0.0000000000e+00  2.9110662737e+01  2.9110662737e+01  0.0000000000e+00 0. 9.
       21    -1     0     0   102   103  0.0000000000e+00  0.0000000000e+00 -1.1115116736e+03  1.1115116736e+03  0.0000000000e+00 0. 9.
        6     2     1     2   101     0  3.0982765270e+00 -3.6650879820e+01 -4.0871547904e+02  4.4452565149e+02  1.7088541693e+02  4.331949e-15 9.
       -6     2     1     2     0   103 -3.0982765270e+00  3.6650879820e+01 -6.7368553184e+02  6.9609668486e+02  1.7130531970e+02  1.269260e-13 9.
       24     2     3     0     0     0 -8.7947778927e+00 -7.2580438628e+01 -3.8453785613e+02  3.9935956477e+02  7.9204993478e+01  3.162833e-14 9.
        5     1     3     0   101     0  1.1893054420e+01  3.5929558808e+01 -2.4177622910e+01  4.5166086714e+01  4.8000000000e+00 0. 9.
      -24     2     4     0     0     0 -2.1881753436e+01  8.3289497809e+01 -5.5778661049e+02  5.6967050220e+02  7.7347441168e+01  1.145609e-14 9.
       -5     1     4     0     0   103  1.8783476909e+01 -4.6638617988e+01 -1.1589892134e+02  1.2642618266e+02  4.8000000000e+00 0. 9.
       -3     1     5     0     0   104 -4.2182503839e+01 -2.8710593700e+01 -2.1939789895e+02  2.2525396752e+02  5.0000000000e-01 0. 9.
        4     1     5     0   104     0  3.3387725947e+01 -4.3869844928e+01 -1.6513995718e+02  1.7410559725e+02  1.5000000000e+00 0. 9.
        1     1     7     0   105     0  7.0131489137e+00 -1.2016115136e+01 -1.1401855117e+02  1.1486474738e+02  3.3000000000e-01 0. 9.
       -2     1     7     0     0   105 -2.8894902350e+01  9.5305612945e+01 -4.4376805933e+02  4.5480575482e+02  3.3000000000e-01 0. 9.
#pdf   21   21  4.478563e-03  1.710018e-01  1.747991e+02  1.444747e+01  3.644117e-01
</event>
<event>
    12  9999  1.000000e+00  2.075556e+02  7.891079e-03  1.052615e-01
       -1    -1     0     0     0   101  0.0000000000e+00  0.0000000000e+00  3.7671989978e+02  3.7671989978e+02  0.0000000000e+00 0. 9.
        1    -1     0     0   102     0  0.0000000000e+00  0.0000000000e+00 -1.1761833193e+02  1.1761833193e+02  0.0000000000e+00 0. 9.
       -6     2     1     2     0   101  3.5541019825e+01  1.1215619806e+02  1.7083433095e+02  2.6895377011e+02  1.7120042339e+02  2.811674e-14 9.
        6     2     1     2   102     0 -3.5541019825e+01 -1.1215619806e+02  8.8267236901e+01  2.2538446160e+02  1.7077726303e+02  1.184700e-13 9.
      -24     2     3     0     0     0 -2.9270560574e+01  9.7882022293e+01  6.9126582863e+01  1.4741447988e+02  8.0714858707e+01  1.842905e-13 9.
       -5     1     3     0     0   101  6.4811580398e+01  1.4274175769e+01  1.0170774809e+02  1.2153929023e+02  4.8000000000e+00 0. 9.
       24     2     4     0     0     0 -8.7430271026e+01 -7.0049022005e+01  7.8665858367e+01  1.5770333324e+02  7.8301381010e+01  1.023157e-13 9.
        5     1     4     0   102     0  5.1889251201e+01 -4.2107176057e+01  9.6013785345e+00  6.7681128356e+01  4.8000000000e+00 0. 9.
        3     1     5     0   103     0 -2.2591998930e+00  7.1839761803e+01  8.0750050566e+01  1.0810585565e+02  5.0000000000e-01 0. 9.
       -4     1     5     0     0   103 -2.7011360681e+01  2.6042260491e+01 -1.1623467704e+01  3.9308624229e+01  1.5000000000e+00 0. 9.
       -3     1     7     0     0   104 -6.9448067543e+01 -6.2596857382e+01  1.9646310677e+01  9.5538621315e+01  5.0000000000e-01 0. 9.
        4     1     7     0   104     0 -1.7982203483e+01 -7.4521646233e+00  5.9019547690e+01  6.2164711929e+01  1.5000000000e+00 0. 9.
#pdf   -1    1  5.795691e-02  1.809513e-02  2.073814e+02  1.668792e-01  5.667907e-01
</event>
<event>
    12  9999  1.000000e+00  1.742750e+02  7.875331e-03  1.075322e-01
       21    -1     0     0   101   102  0.0000000000e+00  0.0000000000e+00  5.2466116343e+01  5.2466116343e+01  0.0000000000e+00 0. 9.
       21    -1     0     0   102   103  0.0000000000e+00  0.0000000000e+00 -1.9804886576e+03  1.9804886576e+03  0.0000000000e+00 0. 9.
        6     2     1     2   101     0  3.8915969692e+01 -4.6858853683e+00 -1.0702706966e+02  2.0352728700e+02  1.6861836405e+02  8.788675e-14 9.
       -6     2     1     2     0   103 -3.8915969692e+01  4.6858853683e+00 -1.8209954716e+03  1.8294274870e+03  1.7100880735e+02  1.716501e-13 9.
       24     2     3     0     0     0  4.3233812459e+01  3.9812771528e+01 -2.8860044851e+01  1.1335025002e+02  9.2526524161e+01  4.980869e-14 9.
        5     1     3     0   101     0 -4.3178427666e+00 -4.4498656896e+01 -7.8167024813e+01  9.0177036987e+01  4.8000000000e+00 0. 9.
      -24     2     4     0     0     0 -4.7429505338e+01  6.3813036982e+01 -1.0041087142e+03  1.0103453697e+03  7.9005028413e+01  5.887304e-14 9.
       -5     1     4     0     0   103  8.5135356459e+00 -5.9127151614e+01 -8.1688675740e+02  8.1908211722e+02  4.8000000000e+00 0. 9.
       -1     1     5     0     0   104  5.4048934863e+01  1.2882693075e+01  1.7847692597e+01  5.8360090573e+01  3.3000000000e-01 0. 9.
        2     1     5     0   104     0 -1.0815122404e+01  2.6930078453e+01 -4.6707737448e+01  5.4990159443e+01  3.3000000000e-01 0. 9.
       13     1     7     0     0     0  1.8660103273e+01 -1.8331413306e+00 -1.4766017360e+02  1.4884588638e+02  1.0566000000e-01  2.540807e+05 9.
      -14     1     7     0     0     0 -6.6089608611e+01  6.5646178313e+01 -8.5644854061e+02  8.6149948334e+02  0.0000000000e+00 0. 9.
#pdf   21   21  8.071710e-03  3.046906e-01  1.731143e+02  9.512988e+00  1.004217e-01
</event>
<event>
    12  9999  1.000000e+00  2.142676e+02  7.893954e-03  1.048584e-01
       21    -1     0     0   101   102  0.0000000000e+00  0.0000000000e+00  1.8213363108e+02  1.8213363108e+02  0.0000000000e+00 0. 9.
       21    -1     0     0   103   101  0.0000000000e+00  0.0000000000e+00 -2.5536556401e+02  2.5536556401e+02  0.0000000000e+00 0. 9.
        6     2     1     2   103     0  1.2239894938e+02 -4.1142870618e+01 -1.1766355932e+01  2.1457121308e+02  1.7096233427e+02  4.062467e-15 9.
       -6     2     1     2     0   102 -1.2239894938e+02  4.1142870618e+01 -6.1465576995e+01  2.2292798201e+02  1.7101061194e+02  2.686967e-14 9.
       24     2     3     0     0     0  1.2038712468e+02 -4.3625727604e+01 -6.1909231309e+01  1.6409785408e+02  8.1847962075e+01  1.868824e-14 9.
        5     1     3     0   103     0  2.0118246973e+00  2.4828569856e+00  5.0142875377e+01  5.0473358997e+01  4.8000000000e+00 0. 9.
      -24     2     4     0     0     0 -1.6863890862e+01 -2.5062245462e+01 -5.2239265582e+01  9.7912259822e+01  7.7106178691e+01  5.268944e-14 9.
       -5     1     4     0     0   102 -1.0553505852e+02  6.6205116081e+01 -9.2263114130e+00  1.2501572219e+02  4.8000000000e+00 0. 9.
      -11     1     5     0     0     0  3.2502182768e+01 -3.9529594461e+01  7.9054513114e+00  5.1782978706e+01  5.1100000000e-04 0. 9.
       12     1     5     0     0     0  8.7884941915e+01 -4.0961331427e+00 -6.9814682620e+01  1.1231487538e+02  0.0000000000e+00 0. 9.
       13     1     7     0     0     0  1.0261917202e+01  2.4192150195e+01 -1.2803598314e+01  2.9232009331e+01  1.0566000000e-01  1.739509e+05 9.
      -14     1     7     0     0     0 -2.7125808064e+01 -4.9254395657e+01 -3.9435667268e+01  6.8680250491e+01  0.0000000000e+00 0. 9.
#pdf   21   21  2.802056e-02  3.928701e-02  2.142484e+02  3.396435e+00  2.440604e+00
</event>
<event>
    12  9999  1.000000e+00  2.198930e+02  7.896296e-03  1.045324e-01
       21    -1     0     0   101   102  0.0000000000e+00  0.0000000000e+00  2.7943834900e+02  2.7943834900e+02  0.0000000000e+00 0. 9.
       21    -1     0     0   103   101  0.0000000000e+00  0.0000000000e+00 -1.7304619743e+02  1.7304619743e+02  0.0000000000e+00 0. 9.
        6     2     1     2   103     0 -1.3091966620e+02  3.6762744853e+01  5.4434004435e+01  2.2566269266e+02  1.7166575550e+02  3.036762e-13 9.
       -6     2     1     2     0   102  1.3091966620e+02 -3.6762744853e+01  5.1958147138e+01  2.2682185376e+02  1.7394552562e+02  2.605369e-14 9.
       24     2     3     0     0     0 -7.5993326001e+01 -4.8749318720e+00  9.4000323278e+01  1.4604402301e+02  8.1817145650e+01  1.509921e-13 9.
        5     1     3     0   103     0 -5.4926340198e+01  4.1637676725e+01 -3.9566318843e+01  7.9618669653e+01  4.8000000000e+00 0. 9.
      -24     2     4     0     0     0  2.3301737215e+01  1.7559001877e+01 -1.6805789326e+01  8.7955047922e+01  8.1254946902e+01  1.785289e-14 9.
       -5     1     4     0     0   102  1.0761792898e+02 -5.4321746730e+01  6.8763936464e+01  1.3886680584e+02  4.8000000000e+00 0. 9.
       -3     1     5     0     0   104  1.3068027991e+01  6.5840478096e+00  3.6701043463e+01  3.9513790408e+01  5.0000000000e-01 0. 9.
        4     1     5     0   104     0 -8.9061353992e+01 -1.1458979682e+01  5.7299279815e+01  1.0653023260e+02  1.5000000000e+00 0. 9.
        1     1     7     0   105     0 -5.5037328351e+00 -2.6313322345e+00  2.9317643372e+01  2.9947422215e+01  3.3000000000e-01 0. 9.
       -2     1     7     0     0   105  2.8805470050e+01  2.0190334112e+01 -4.6123432698e+01  5.8007625707e+01  3.3000000000e-01 0. 9.
#pdf   21   21  4.299052e-02  2.662249e-02  2.189991e+02  2.220854e+00  3.559873e+00
</event>
<event>
    12  9999  1.000000e+00  1.983860e+02  7.887002e-03  1.058392e-01
       21    -1     0     0   101   102  0.0000000000e+00  0.0000000000e+00  5.1361978457e+02  5.1361978457e+02  0.0000000000e+00 0. 9.
       21    -1     0     0   102   103  0.0000000000e+00  0.0000000000e+00 -8.9585889274e+01  8.9585889274e+01  0.0000000000e+00 0. 9.
        6     2     1     2   101     0 -5.2678689974e+01  9.3121627356e+01  3.2886982878e+02  3.8532903720e+02  1.6993063517e+02  1.236830e-13 9.
       -6     2     1     2     0   103  5.2678689974e+01 -9.3121627356e+01  9.5164066520e+01  2.1787663665e+02  1.6421737844e+02  2.694090e-14 9.
       24     2     3     0     0     0 -5.2400234185e-01 -1.6702790899e+01  9.1663638700e+01  1.1873696887e+02  7.3600185553e+01  7.772554e-14 9.
        5     1     3     0   101     0 -5.2154687632e+01  1.0982441826e+02  2.3720619008e+02  2.6659206833e+02  4.8000000000e+00 0. 9.
      -24     2     4     0     0     0  7.0356712854e+01 -9.7280935190e+01  2.8833186368e+01  1.4893725750e+02  8.3290495507e+01  6.259062e-14 9.
       -5     1     4     0     0   103 -1.7678022880e+01  4.1593078337e+00  6.6330880152e+01  6.8939379141e+01  4.8000000000e+00 0. 9.
       -1     1     5     0     0   104 -2.2566810662e+01 -9.0821647058e+00  1.8227004300e-01  2.4328764490e+01  3.3000000000e-01 0. 9.
        2     1     5     0   104     0  2.2042808321e+01 -7.6206261930e+00  9.1481368657e+01  9.4408204376e+01  3.3000000000e-01 0. 9.
        1     1     7     0   105     0  4.7020019674e+01 -4.8178460523e+01 -2.5567645083e+01  7.2012913311e+01  3.3000000000e-01 0. 9.
       -4     1     7     0     0   105  2.3336693180e+01 -4.9102474667e+01  5.4400831451e+01  7.6924344194e+01  1.5000000000e+00 0. 9.
#pdf   21   21  7.901843e-02  1.378244e-02  1.959950e+02  1.115829e+00  6.304461e+00
</event>
<event>
    12  9999  1.000000e+00  2.414697e+02  7.904768e-03  1.033721e-01
       21    -1     0     0   101   102  0.0000000000e+00  0.0000000000e+00  1.4219791544e+02  1.4219791544e+02  0.0000000000e+00 0. 9.
       21    -1     0     0   103   101  0.0000000000e+00  0.0000000000e+00 -4.6083077904e+02  4.6083077904e+02  0.0000000000e+00 0. 9.
        6     2     1     2   103     0 -1.5950445373e+01 -1.6959176561e+02 -2.5946494367e+02  3.5450660574e+02  1.7128074279e+02  3.010039e-13 9.
       -6     2     1     2     0   102  1.5950445373e+01  1.6959176561e+02 -5.9167919934e+01  2.4852208874e+02  1.7101637984e+02  3.203896e-14 9.
       24     2     3     0     0     0 -5.6580911300e+01 -1.6076406512e+02 -2.4738913332e+02  3.1094483060e+02  8.0242259671e+01  1.064418e-13 9.
        5     1     3     0   103     0  4.0630465928e+01 -8.8277004882e+00 -1.2075810350e+01  4.3561775136e+01  4.8000000000e+00 0. 9.
      -24     2     4     0     0     0 -1.9484674308e+01  1.8147838261e+01 -1.9412925925e+01  8.7915705348e+01  8.1506521134e+01  1.212853e-13 9.
       -5     1     4     0     0   102  3.5435119681e+01  1.5144392735e+02 -3.9754994009e+01  1.6060638339e+02  4.8000000000e+00 0. 9.
       -1     1     5     0     0   104 -8.7938750058e+00 -1.2952063330e+02 -1.5325009566e+02  2.0084478437e+02  3.3000000000e-01 0. 9.
        2     1     5     0   104     0 -4.7787036294e+01 -3.1243431820e+01 -9.4139037654e+01  1.1010004623e+02  3.3000000000e-01 0. 9.
        1     1     7     0   105     0 -2.8337330078e+01  4.1563884304e+01  7.8352557023e+00  5.0912286202e+01  3.3000000000e-01 0. 9.
       -2     1     7     0     0   105  8.8526557698e+00 -2.3416046044e+01 -2.7248181627e+01  3.7003419146e+01  3.3000000000e-01 0. 9.
#pdf   21   21  2.187660e-02  7.089704e-02  2.413760e+02  4.244202e+00  1.253396e+00
</event>
<event>
    12  9999  1.000000e+00  1.976237e+02  7.886654e-03  1.058887e-01
       21    -1     0     0   101   102  0.0000000000e+00  0.0000000000e+00  2.6635078346e+02  2.6635078346e+02  0.0000000000e+00 0. 9.
       21    -1     0     0   102   103  0.0000000000e+00  0.0000000000e+00 -2.1772632703e+02  2.1772632703e+02  0.0000000000e+00 0. 9.
        6     2     1     2   101     0  9.6211852283e+01 -3.7639304801e+01  1.6280565669e+02  2.5809339240e+02  1.7156071684e+02  2.388740e-13 9.
       -6     2     1     2     0   103 -9.6211852283e+01  3.7639304801e+01 -1.1418120026e+02  2.2598371809e+02  1.6540210568e+02  1.142910e-14 9.
       24     2     3     0     0     0  1.1772681618e+02 -3.8763047824e+01  7.0922548075e+01  1.6359629128e+02  7.9822061930e+01  9.333139e-14 9.
        5     1     3     0   101     0 -2.1514963901e+01  1.1237430237e+00  9.1883108617e+01  9.4497101115e+01  4.8000000000e+00 0. 9.
      -24     2     4     0     0     0 -2.0349919339e+01 -2.9607348589e+01 -7.8843415442e+01  1.1851770347e+02  8.0866850871e+01  3.069498e-14 9.
       -5     1     4     0     0   103 -7.5861932944e+01  6.7246653390e+01 -3.5337784815e+01  1.0746601462e+02  4.8000000000e+00 0. 9.
      -11     1     5     0     0     0  1.0502119904e+02  4.3750600765e-01  4.1323574327e+01  1.1285956519e+02  5.1100000000e-04 0. 9.
       12     1     5     0     0     0  1.2705617143e+01 -3.9200553832e+01  2.9598973748e+01  5.0736726093e+01  0.0000000000e+00 0. 9.
       15     1     7     0     0     0  2.7865299557e+01  2.9588228775e-01 -4.3445575035e+01  5.1645305161e+01  1.7768200000e+00  1.660140e-01 9.
      -16     1     7     0     0     0 -4.8215218897e+01 -2.9903230877e+01 -3.5397840407e+01  6.6872398309e+01  0.0000000000e+00 0. 9.
#pdf   21   21  4.097704e-02  3.349636e-02  1.950161e+02  2.349193e+00  2.873973e+00
</event>
<event>
    12  9999  1.000000e+00  1.728065e+02  7.874570e-03  1.076447e-01
       21    -1     0     0   101   102  0.0000000000e+00  0.0000000000e+00  1.5053357533e+03  1.5053357533e+03  0.0000000000e+00 0. 9.
       21    -1     0     0   103   101  0.0000000000e+00  0.0000000000e+00 -7.5330930151e+01  7.5330930151e+01  0.0000000000e+00 0. 9.
        6     2     1     2   103     0  2.9230296725e+01  1.7514144886e+00  3.4769152041e+01  1.7455153898e+02  1.6852853802e+02  2.067731e-13 9.
       -6     2     1     2     0   102 -2.9230296725e+01 -1.7514144886e+00  1.3952356711e+03  1.4061151444e+03  1.7210387526e+02  1.313574e-13 9.
       24     2     3     0     0     0  4.7908501862e+01  5.3918565148e+01 -4.6023999958e-02  1.0893581344e+02  8.1636836745e+01  1.205973e-14 9.
        5     1     3     0   103     0 -1.8678205138e+01 -5.2167150660e+01  3.4815176041e+01  6.5615725538e+01  4.8000000000e+00 0. 9.
      -24     2     4     0     0     0 -3.8380436048e+00 -4.7864408844e+01  1.2071888432e+03  1.2107799857e+03  7.9859491626e+01  2.760517e-13 9.
       -5     1     4     0     0   102 -2.5392253120e+01  4.6112994355e+01  1.8804682785e+02  1.9533515872e+02  4.8000000000e+00 0. 9.
       -1     1     5     0     0   104  1.1841882017e+01 -3.7594324506e+00 -3.1593131480e+01  3.3949939009e+01  3.3000000000e-01 0. 9.
        2     1     5     0   104     0  3.6066619845e+01  5.7677997599e+01  3.1547107480e+01  7.4985874432e+01  3.3000000000e-01 0. 9.
        1     1     7     0   105     0  1.7481872454e+01 -3.1175005515e+01  1.0866326971e+03  1.0872204119e+03  3.3000000000e-01 0. 9.
       -2     1     7     0     0   105 -2.1319916059e+01 -1.6689403329e+01  1.2055614611e+02  1.2355957377e+02  3.3000000000e-01 0. 9.
#pdf   21   21  2.315901e-01  1.158937e-02  1.710536e+02  2.028097e-01  7.229885e+00
</event>
<event>
    12  9999  1.000000e+00  1.715174e+02  7.873897e-03  1.077444e-01
        2    -1     0     0   101     0  0.0000000000e+00  0.0000000000e+00  2.8070667825e+02  2.8070667825e+02  0.0000000000e+00 0. 9.
       -2    -1     0     0     0   102  0.0000000000e+00  0.0000000000e+00 -1.7110254079e+02  1.7110254079e+02  0.0000000000e+00 0. 9.
        6     2     1     2   101     0 -7.6706427619e+00 -1.1453056160e+01 -8.6031468779e+01  1.9090318081e+02  1.6986052975e+02  4.348892e-13 9.
       -6     2     1     2     0   102  7.6706427619e+00  1.1453056160e+01  1.9563560624e+02  2.6090603823e+02  1.7207166850e+02  2.617780e-13 9.
       24     2     3     0     0     0 -6.0895768649e+01 -3.7452503032e+01 -7.2544488515e+01  1.2996202968e+02  8.0724480321e+01  4.988106e-14 9.
        5     1     3     0   101     0  5.3225125887e+01  2.5999446872e+01 -1.3486980264e+01  6.0941151121e+01  4.8000000000e+00 0. 9.
      -24     2     4     0     0     0  6.4066403698e+01  2.9069945752e+01  1.5751963629e+02  1.9043119296e+02  8.0635213195e+01  6.560980e-14 9.
       -5     1     4     0     0   102 -5.6395760936e+01 -1.7616889592e+01  3.8115969955e+01  7.0474845272e+01  4.8000000000e+00 0. 9.
       -1     1     5     0     0   103  1.6381607157e+00  1.8731214784e+01 -3.0834606045e+01  3.6116807830e+01  3.3000000000e-01 0. 9.
        2     1     5     0   103     0 -6.2533929365e+01 -5.6183717816e+01 -4.1709882470e+01  9.3845221855e+01  3.3000000000e-01 0. 9.
        3     1     7     0   104     0  7.1274809206e+01  2.2806179196e+01  7.0298291062e+01  1.0267580028e+02  5.0000000000e-01 0. 9.
       -4     1     7     0     0   104 -7.2084055074e+00  6.2637665555e+00  8.7221345227e+01  8.7755392681e+01  1.5000000000e+00 0. 9.
#pdf    2   -2  4.318564e-02  2.632347e-02  1.704189e+02  6.284723e-01  2.723742e-01
</event>
<event>
    12  9999  1.000000e+00  1.790307e+02  7.877753e-03  1.071760e-01
       21    -1     0     0   101   102  0.0000000000e+00  0.0000000000e+00  2.2483121149e+02  2.2483121149e+02  0.0000000000e+00 0. 9.
       21    -1     0     0   102   103  0.0000000000e+00  0.0000000000e+00 -1.4257231913e+02  1.4257231913e+02  0.0000000000e+00 0. 9.
        6     2     1     2   101     0  4.0839152898e+01  3.4053080078e+01  3.9925492914e+01  1.8206696174e+02  1.6949007317e+02  1.412473e-13 9.
       -6     2     1     2     0   103 -4.0839152898e+01 -3.4053080078e+01  4.2333399440e+01  1.8533656888e+02  1.7242412355e+02  2.067088e-13 9.
       24     2     3     0     0     0  6.6945258154e+01  5.2950476374e+01 -1.5631557769e+01  1.1765992642e+02  7.9461261942e+01  1.013775e-13 9.
        5     1     3     0   101     0 -2.6106105256e+01 -1.8897396296e+01  5.5557050683e+01  6.4407035322e+01  4.8000000000e+00 0. 9.
      -24     2     4     0     0     0 -1.3136644005e+01  4.2822613549e+01  4.8337277073e+01  1.0326106817e+02  7.9498479218e+01  2.495366e-13 9.
       -5     1     4     0     0   103 -2.7702508893e+01 -7.6875693627e+01 -6.0038776325e+00  8.2075500707e+01  4.8000000000e+00 0. 9.
      -11     1     5     0     0     0  5.1303881361e+01 -9.5390386789e+00 -6.0127944189e+00  5.2528422769e+01  5.1100000000e-04 0. 9.
       12     1     5     0     0     0  1.5641376793e+01  6.2489515053e+01 -9.6187633497e+00  6.5131503652e+01  0.0000000000e+00 0. 9.
       13     1     7     0     0     0  2.9359983302e+01  2.3577732588e-01  6.7602418098e+00  3.0129325313e+01  1.0566000000e-01  4.153744e+05 9.
      -14     1     7     0     0     0 -4.2496627307e+01  4.2586836223e+01  4.1577035263e+01  7.3131742857e+01  0.0000000000e+00 0. 9.
#pdf   21   21  3.458942e-02  2.193420e-02  1.776354e+02  2.795979e+00  4.265010e+00
</event>
<event>
    12  9999  1.000000e+00  2.366638e+02  7.902947e-03  1.036191e-01
       21    -1     0     0   101   102  0.0000000000e+00  0.0000000000e+00  3.0321620046e+02  3.0321620046e+02  0.0000000000e+00 0. 9.
       21    -1     0     0   102   103  0.0000000000e+00  0.0000000000e+00 -2.4393636622e+02  2.4393636622e+02  0.0000000000e+00 0. 9.
        6     2     1     2   101     0 -6.9739481952e+01 -1.4707105480e+02  1.6440216000e+02  2.8790675556e+02  1.7137309936e+02  1.335839e-13 9.
       -6     2     1     2     0   103  6.9739481952e+01  1.4707105480e+02 -1.0512232576e+02  2.5924581112e+02  1.7223297219e+02  8.587528e-14 9.
       24     2     3     0     0     0 -4.7794930992e+01 -9.5149669408e+00  8.1069141372e+01  1.2551626133e+02  8.2505976458e+01  1.895518e-14 9.
        5     1     3     0   101     0 -2.1944550960e+01 -1.3755608786e+02  8.3333018626e+01  1.6239049423e+02  4.8000000000e+00 0. 9.
      -24     2     4     0     0     0  4.8115543416e+01  1.2925205114e+02 -1.4114483650e+02  2.1335711001e+02  8.1106061899e+01  4.523557e-14 9.
       -5     1     4     0     0   103  2.1623938536e+01  1.7819003655e+01  3.6022510749e+01  4.5888701112e+01  4.8000000000e+00 0. 9.
      -11     1     5     0     0     0 -8.4593276630e+00  8.4312843606e+00 -1.5583421799e+01  1.9633894563e+01  5.1100000000e-04 0. 9.
       12     1     5     0     0     0 -3.9335603329e+01 -1.7946251301e+01  9.6652563171e+01  1.0588236677e+02  0.0000000000e+00 0. 9.
        1     1     7     0   104     0 -1.3323652526e+01  7.9952520165e+01 -7.6471264597e+01  1.1143557963e+02  3.3000000000e-01 0. 9.
       -2     1     7     0     0   104  6.1439195942e+01  4.9299530979e+01 -6.4673571907e+01  1.0192153038e+02  3.3000000000e-01 0. 9.
#pdf   21   21  4.664865e-02  3.752867e-02  2.363519e+02  2.027325e+00  2.543806e+00
</event>
<event>
    12  9999  1.000000e+00  1.736073e+02  7.874986e-03  1.075832e-01
       21    -1     0     0   101   102  0.0000000000e+00  0.0000000000e+00  4.0061705612e+02  4.0061705612e+02  0.0000000000e+00 0. 9.
       21    -1     0     0   103   101  0.0000000000e+00  0.0000000000e+00 -7.9477699047e+01  7.9477699047e+01  0.0000000000e+00 0. 9.
        6     2     1     2   103     0 -7.0736181294e-01 -2.6533467300e+01  2.1657458170e+02  2.7795072014e+02  1.7218457579e+02  8.559946e-14 9.
       -6     2     1     2     0   102  7.0736181294e-01  2.6533467300e+01  1.0456477537e+02  2.0214403503e+02  1.7094997339e+02  1.706150e-13 9.
       24     2     3     0     0     0 -8.7058939593e+00 -7.9034091006e+01  1.0634828155e+02  1.5550412260e+02  8.0928332640e+01  3.445150e-13 9.
        5     1     3     0   103     0  7.9985321464e+00  5.2500623706e+01  1.1022630015e+02  1.2244659754e+02  4.8000000000e+00 0. 9.
      -24     2     4     0     0     0 -1.9192920589e+01 -4.2337276233e+01  2.8412813260e+01  9.7447512219e+01  8.0795522901e+01  6.652810e-15 9.
       -5     1     4     0     0   102  1.9900282402e+01  6.8870743533e+01  7.6151962114e+01  1.0469652281e+02  4.8000000000e+00 0. 9.
       -3     1     5     0     0   104 -3.8848582049e+01 -7.1318430670e+01  8.6052709926e+01  1.1832518652e+02  5.0000000000e-01 0. 9.
        4     1     5     0   104     0  3.0142688089e+01 -7.7156603355e+00  2.0295571629e+01  3.7178936072e+01  1.5000000000e+00 0. 9.
        1     1     7     0   105     0 -2.3506784932e+01  1.9268200575e+01  1.6380238853e+01  3.4529025705e+01  3.3000000000e-01 0. 9.
       -2     1     7     0     0   105  4.3138643426e+00 -6.1605476809e+01  1.2032574407e+01  6.2918486514e+01  3.3000000000e-01 0. 9.
#pdf   21   21  6.163339e-02  1.222734e-02  1.729983e+02  1.519081e+00  6.933548e+00
</event>
<event>
    12  9999  1.000000e+00  2.394985e+02  7.904025e-03  1.034727e-01
       21    -1     0     0   101   102  0.0000000000e+00  0.0000000000e+00  7.3979787585e+02  7.3979787585e+02  0.0000000000e+00 0. 9.
       21    -1     0     0   102   103  0.0000000000e+00  0.0000000000e+00 -8.2659840653e+02  8.2659840653e+02  0.0000000000e+00 0. 9.
        6     2     1     2   101     0  1.6564698956e+02  2.5102942285e+01  7.0215614941e+02  7.4198692433e+02  1.7161659261e+02  3.714745e-14 9.
       -6     2     1     2     0   103 -1.6564698956e+02 -2.5102942285e+01 -7.8895668009e+02  8.2440935805e+02  1.7067238712e+02  5.491893e-13 9.
       24     2     3     0     0     0  1.6341489747e+02  3.2468839357e+01  4.1192655818e+02  4.5161562014e+02  8.0712606021e+01  1.136241e-13 9.
        5     1     3     0   101     0  2.2320920928e+00 -7.3658970717e+00  2.9022959123e+02  2.9037130419e+02  4.8000000000e+00 0. 9.
      -24     2     4     0     0     0 -6.7675431765e+01  4.3219063846e+01 -3.0052581065e+02  3.2156338076e+02  8.1482473168e+01  3.874028e-13 9.
       -5     1     4     0     0   103 -9.7971557794e+01 -6.8322006131e+01 -4.8843086944e+02  5.0284597730e+02  4.8000000000e+00 0. 9.
       -1     1     5     0     0   104  9.5772218186e+01  1.6659739629e+01  3.3091931276e+02  3.4490225450e+02  3.3000000000e-01 0. 9.
        2     1     5     0   104     0  6.7642679280e+01  1.5809099728e+01  8.1007245422e+01  1.0671336564e+02  3.3000000000e-01 0. 9.
        1     1     7     0   105     0  1.1391086291e+01  2.2710492404e+01 -1.3029310977e+02  1.3274760513e+02  3.3000000000e-01 0. 9.
       -2     1     7     0     0   105 -7.9066518056e+01  2.0508571442e+01 -1.7023270088e+02  1.8881577563e+02  3.3000000000e-01 0. 9.
#pdf   21   21  1.138151e-01  1.271690e-01  2.391613e+02  6.677323e-01  5.658077e-01
</event>
<event>
    12  9999  1.000000e+00  1.884478e+02  7.882369e-03  1.065042e-01
       21    -1     0     0   101   102  0.0000000000e+00  0.0000000000e+00  4.8427460676e+02  4.8427460676e+02  0.0000000000e+00 0. 9.
       21    -1     0     0   103   101  0.0000000000e+00  0.0000000000e+00 -8.1358996277e+01  8.1358996277e+01  0.0000000000e+00 0. 9.
        6     2     1     2   103     0 -4.9099674451e+01  5.9664304237e+01  1.1191470557e+02  2.1853969110e+02  1.7106749555e+02  5.988565e-14 9.
       -6     2     1     2     0   102  4.9099674451e+01 -5.9664304237e+01  2.9100090491e+02  3.4709391194e+02  1.7269061877e+02  9.269506e-14 9.
       24     2     3     0     0     0 -1.5521559355e+01  1.0231011591e+02  9.3598050036e+01  1.6105321498e+02  8.0431737915e+01  2.186998e-13 9.
        5     1     3     0   103     0 -3.3578115096e+01 -4.2645811672e+01  1.8316655537e+01  5.7486476119e+01  4.8000000000e+00 0. 9.
      -24     2     4     0     0     0  9.4013731959e+01 -3.9563398270e+01  1.5265425619e+02  2.0017844578e+02  7.9776211642e+01  2.782484e-14 9.
       -5     1     4     0     0   102 -4.4914057508e+01 -2.0100905967e+01  1.3834664872e+02  1.4691546615e+02  4.8000000000e+00 0. 9.
       -3     1     5     0     0   104  1.7294116941e+01  4.0669653941e+01  7.7744641847e+01  8.9429226589e+01  5.0000000000e-01 0. 9.
        4     1     5     0   104     0 -3.2815676296e+01  6.1640461967e+01  1.5853408189e+01  7.1623988394e+01  1.5000000000e+00 0. 9.
        1     1     7     0   105     0  6.0507107610e+00 -4.0416720887e+01  3.9337001375e+01  5.6724165971e+01  3.3000000000e-01 0. 9.
       -2     1     7     0     0   105  8.7963021198e+01  8.5332261654e-01  1.1331725482e+02  1.4345427981e+02  3.3000000000e-01 0. 9.
#pdf   21   21  7.450379e-02  1.251677e-02  1.877091e+02  1.204901e+00  6.810223e+00
</event>
<event>
    12  9999  1.000000e+00  1.882790e+02  7.882288e-03  1.065159e-01
       21    -1     0     0   101   102  0.0000000000e+00  0.0000000000e+00  5.1860086488e+02  5.1860086488e+02  0.0000000000e+00 0. 9.
       21    -1     0     0   103   101  0.0000000000e+00  0.0000000000e+00 -8.0912803258e+01  8.0912803258e+01  0.0000000000e+00 0. 9.
        6     2     1     2   103     0 -7.5965459511e+01  1.1724874365e+01  3.3537770957e+02  3.8385506577e+02  1.7017132464e+02  3.732602e-14 9.
       -6     2     1     2     0   102  7.5965459511e+01 -1.1724874365e+01  1.0231035206e+02  2.1565860237e+02  1.7358859674e+02  2.151625e-13 9.
       24     2     3     0     0     0 -6.7092535452e+01  5.6602255506e+01  1.4300219400e+02  1.8605696895e+02  8.0388709176e+01  1.759292e-13 9.
        5     1     3     0   103     0 -8.8729240596e+00 -4.4877381141e+01  1.9237551557e+02  1.9779809683e+02  4.8000000000e+00 0. 9.
      -24     2     4     0     0     0 -1.0117488558e+01  3.8568749233e+01  5.1673827012e+01  1.0373532422e+02  8.0628289701e+01  4.239935e-14 9.
       -5     1     4     0     0   102  8.6082948070e+01 -5.0293623598e+01  5.0636525045e+01  1.1192327815e+02  4.8000000000e+00 0. 9.
       -3     1     5     0     0   104  4.0716078118e+00 -1.2321657353e+01  4.4451114445e+01  4.6309316617e+01  5.0000000000e-01 0. 9.
        4     1     5     0   104     0 -7.1164143264e+01  6.8923912859e+01  9.8551079555e+01  1.3974765233e+02  1.5000000000e+00 0. 9.
        3     1     7     0   105     0  1.4909113547e+01  1.5028301136e+00  5.6752144610e+01  5.8699200019e+01  5.0000000000e-01 0. 9.
       -4     1     7     0     0   105 -2.5026602105e+01  3.7065919119e+01 -5.0783175974e+00  4.5036124197e+01  1.5000000000e+00 0. 9.
#pdf   21   21  7.978475e-02  1.244812e-02  1.867257e+02  1.107109e+00  6.839823e+00
</event>
<event>
    12  9999  1.000000e+00  2.333384e+02  7.901666e-03  1.037937e-01
       21    -1     0     0   101   102  0.0000000000e+00  0.0000000000e+00  2.3197966390e+02  2.3197966390e+02  0.0000000000e+00 0. 9.
       21    -1     0     0   102   103  0.0000000000e+00  0.0000000000e+00 -2.6294902171e+02  2.6294902171e+02  0.0000000000e+00 0. 9.
        6     2     1     2   101     0 -1.3588301073e+02 -4.1055895639e+01  6.5369227837e+01  2.3134466354e+02  1.7057971224e+02  3.296995e-14 9.
       -6     2     1     2     0   103  1.3588301073e+02  4.1055895639e+01 -9.6338585654e+01  2.6358402207e+02  2.0011405356e+02  1.554552e-13 9.
       24     2     3     0     0     0 -4.2523142285e+01 -1.0224931275e+01 -2.9069956704e+01  9.4932006583e+01  7.9083858289e+01  1.761015e-14 9.
        5     1     3     0   101     0 -9.3359868450e+01 -3.0830964364e+01  9.4439184541e+01  1.3641265695e+02  4.8000000000e+00 0. 9.
      -24     2     4     0     0     0  2.8624994672e+00 -4.1907079961e+01 -1.3307617957e+01  8.6117142527e+01  7.3991028424e+01  4.020739e-14 9.
       -5     1     4     0     0   103  1.3302051127e+02  8.2962975600e+01 -8.3030967696e+01  1.7746687954e+02  4.8000000000e+00 0. 9.
       -1     1     5     0     0   104 -6.9921156537e+00 -3.7609104429e+01 -3.2143458004e+01  4.9966440835e+01  3.3000000000e-01 0. 9.
        2     1     5     0   104     0 -3.5531026631e+01  2.7384173155e+01  3.0735012993e+00  4.4965565748e+01  3.3000000000e-01 0. 9.
        1     1     7     0   105     0 -3.2684457603e+01 -3.4462945086e+01 -1.8180098047e-01  4.7498529497e+01  3.3000000000e-01 0. 9.
       -2     1     7     0     0   105  3.5546957070e+01 -7.4441348752e+00 -1.3125816977e+01  3.8618613029e+01  3.3000000000e-01 0. 9.
#pdf   21   21  3.568918e-02  4.045370e-02  2.219171e+02  2.683893e+00  2.363963e+00
</event>
<event>
    12  9999  1.000000e+00  2.157268e+02  7.894567e-03  1.047728e-01
       21    -1     0     0   101   102  0.0000000000e+00  0.0000000000e+00  5.5678817112e+01  5.5678817112e+01  0.0000000000e+00 0. 9.
       21    -1     0     0   102   103  0.0000000000e+00  0.0000000000e+00 -1.1537094232e+03  1.1537094232e+03  0.0000000000e+00 0. 9.
        6     2     1     2   101     0 -1.3099351007e+02 -2.0850542795e+01 -2.3084506894e+02  3.1567247170e+02  1.6960430043e+02  1.996895e-13 9.
       -6     2     1     2     0   103  1.3099351007e+02  2.0850542795e+01 -8.6718553716e+02  8.9371576862e+02  1.7065483996e+02  7.995970e-14 9.
       24     2     3     0     0     0 -1.3015487192e+02 -7.2050704470e+00 -9.6418678120e+01  1.8046745413e+02  7.9244790264e+01  7.782768e-15 9.
        5     1     3     0   101     0 -8.3863814824e-01 -1.3645472348e+01 -1.3442639082e+02  1.3520501757e+02  4.8000000000e+00 0. 9.
      -24     2     4     0     0     0  6.3222761248e+01  4.0036696812e+01 -7.4555277559e+02  7.5307953009e+02  7.5364333818e+01  7.914050e-14 9.
       -5     1     4     0     0   103  6.7770748820e+01 -1.9186154017e+01 -1.2163276157e+02  1.4063623853e+02  4.8000000000e+00 0. 9.
       -1     1     5     0     0   104 -6.4585127063e+00 -2.8754173617e+00  1.3299734104e+01  1.5065597851e+01  3.3000000000e-01 0. 9.
        2     1     5     0   104     0 -1.2369635921e+02 -4.3296530852e+00 -1.0971841222e+02  1.6540185628e+02  3.3000000000e-01 0. 9.
        1     1     7     0   105     0  6.6773671965e+01  5.1891231909e+00 -5.8047085539e+02  5.8432197727e+02  3.3000000000e-01 0. 9.
       -2     1     7     0     0   105 -3.5509107167e+00  3.4847573621e+01 -1.6508192020e+02  1.6875755282e+02  3.3000000000e-01 0. 9.
#pdf   21   21  8.565972e-03  1.774938e-01  2.153129e+02  9.140409e+00  3.300959e-01
</event>
<event>
    12  9999  1.000000e+00  2.043153e+02  7.889659e-03  1.054619e-01
       21    -1     0     0   101   102  0.0000000000e+00  0.0000000000e+00  9.1700790294e+01  9.1700790294e+01  0.0000000000e+00 0. 9.
       21    -1     0     0   103   101  0.0000000000e+00  0.0000000000e+00 -7.9229513775e+02  7.9229513775e+02  0.0000000000e+00 0. 9.
        6     2     1     2   103     0  6.4775719022e+01 -9.3976289502e+01 -6.3926737786e+02  6.7133483422e+02  1.7029457561e+02  1.337253e-13 9.
       -6     2     1     2     0   102 -6.4775719022e+01  9.3976289502e+01 -6.1326969600e+01  2.1266109382e+02  1.6863068186e+02  3.478184e-15 9.
       24     2     3     0     0     0 -4.8456791337e+00 -9.5808129394e+01 -4.1596229306e+02  4.3737181232e+02  9.5219718039e+01  3.271269e-13 9.
        5     1     3     0   103     0  6.9621398156e+01  1.8318398916e+00 -2.2330508480e+02  2.3396302190e+02  4.8000000000e+00 0. 9.
      -24     2     4     0     0     0 -2.7112582728e+01  1.2404599277e+02 -6.5449443728e+01  1.6405313478e+02  8.0667842925e+01  1.328678e-13 9.
       -5     1     4     0     0   102 -3.7663136294e+01 -3.0069703264e+01  4.1224741285e+00  4.8607959048e+01  4.8000000000e+00 0. 9.
       -1     1     5     0     0   104  1.1278921067e+01  6.9197633301e+00 -1.6756425682e+02  1.6808624646e+02  3.3000000000e-01 0. 9.
        2     1     5     0   104     0 -1.6124600201e+01 -1.0272789272e+02 -2.4839803624e+02  2.6928556586e+02  3.3000000000e-01 0. 9.
        3     1     7     0   105     0  2.5431755728e+01  1.9060294180e+01 -2.2880024961e+01  3.9163944590e+01  5.0000000000e-01 0. 9.
       -4     1     7     0     0   105 -5.2544338456e+01  1.0498569859e+02 -4.2569418767e+01  1.2488919019e+02  1.5000000000e+00 0. 9.
#pdf   21   21  1.410781e-02  1.218916e-01  2.036265e+02  6.185291e+00  6.152015e-01
</event>
<event>
    12  9999  1.000000e+00  2.700696e+02  7.914923e-03  1.020183e-01
       21    -1     0     0   101   102  0.0000000000e+00  0.0000000000e+00  1.8865332740e+02  1.8865332740e+02  0.0000000000e+00 0. 9.
       21    -1     0     0   103   101  0.0000000000e+00  0.0000000000e+00 -6.5733659764e+02  6.5733659764e+02  0.0000000000e+00 0. 9.
        6     2     1     2   103     0 -2.0194077037e+02  5.2365645477e+01 -5.0609571654e+02  5.7392487427e+02  1.7243738412e+02  2.208785e-14 9.
       -6     2     1     2     0   102  2.0194077037e+02 -5.2365645477e+01  3.7412446302e+01  2.7206505077e+02  1.7057979114e+02  1.317452e-13 9.
       24     2     3     0     0     0 -1.0435071009e+02  6.9479522202e+01 -1.8176287202e+02  2.3476187706e+02  7.9742852810e+01  8.742521e-14 9.
        5     1     3     0   103     0 -9.7590060279e+01 -1.7113876725e+01 -3.2433284452e+02  3.3916299721e+02  4.8000000000e+00 0. 9.
      -24     2     4     0     0     0  1.6828329526e+02  4.9944220395e+00  6.8223442663e+01  1.9861193325e+02  8.0299752080e+01  5.906913e-14 9.
       -5     1     4     0     0   102  3.3657475110e+01 -5.7360067516e+01 -3.0810996360e+01  7.3453117517e+01  4.8000000000e+00 0. 9.
      -11     1     5     0     0     0 -9.0547820542e+01  5.1822990688e+01 -8.2517612917e+01  1.3301761767e+02  5.1100000000e-04 0. 9.
       12     1     5     0     0     0 -1.3802889553e+01  1.7656531514e+01 -9.9245259100e+01  1.0174425939e+02  0.0000000000e+00 0. 9.
        3     1     7     0   104     0  1.1445912280e+02 -3.4682630461e+01  4.5788615569e+01  1.2806491699e+02  5.0000000000e-01 0. 9.
       -4     1     7     0     0   104  5.3824172463e+01  3.9677052500e+01  2.2434827094e+01  7.0547016260e+01  1.5000000000e+00 0. 9.
#pdf   21   21  2.902359e-02  1.011287e-01  2.694804e+02  3.256852e+00  7.801624e-01
</event>
<event>
    12  9999  1.000000e+00  1.988473e+02  7.887211e-03  1.058094e-01
       21    -1     0     0   101   102  0.0000000000e+00  0.0000000000e+00  6.6240300849e+02  6.6240300849e+02  0.0000000000e+00 0. 9.
       21    -1     0     0   103   101  0.0000000000e+00  0.0000000000e+00 -6.0501806955e+01  6.0501806955e+01  0.0000000000e+00 0. 9.
        6     2     1     2   103     0 -1.0002009179e+02 -2.4636340023e+01  2.5766705100e+02  3.2485757602e+02  1.6890579481e+02  8.709669e-14 9.
       -6     2     1     2     0   102  1.0002009179e+02  2.4636340023e+01  3.4423415054e+02  3.9804723942e+02  1.7127021458e+02  3.275204e-14 9.
       24     2     3     0     0     0 -9.6984903417e+01  1.3604061991e+01  9.6951791165e+01  1.5955792249e+02  8.0423496733e+01  1.712683e-14 9.
        5     1     3     0   103     0 -3.0351883685e+00 -3.8240402014e+01  1.6071525983e+02  1.6529965353e+02  4.8000000000e+00 0. 9.
      -24     2     4     0     0     0 -2.4317349714e+00  4.4254966962e+01  1.2850355946e+02  1.5837246967e+02  8.1266591657e+01  1.245263e-14 9.
       -5     1     4     0     0   102  1.0245182676e+02 -1.9618626939e+01  2.1573059108e+02  2.3967476975e+02  4.8000000000e+00 0. 9.
       -1     1     5     0     0   104  1.0660680091e+01 -2.4624260642e+00 -3.4554571710e+00  1.1478794640e+01  3.3000000000e-01 0. 9.
        2     1     5     0   104     0 -1.0764558351e+02  1.6066488055e+01  1.0040724834e+02  1.4807912785e+02  3.3000000000e-01 0. 9.
       11     1     7     0     0     0 -3.0656908772e+01 -7.8122879507e+00  5.9895470145e+01  6.7737325328e+01  5.1100000000e-04 0. 9.
      -12     1     7     0     0     0  2.8225173801e+01  5.2067254913e+01  6.8608089313e+01  9.0635144339e+01  0.0000000000e+00 0. 9.
#pdf   21   21  1.019082e-01  9.307970e-03  1.978387e+02  7.977083e-01  8.574062e+00
</event>
<event>
    12  9999  1.000000e+00  1.901059e+02  7.883158e-03  1.063902e-01
       21    -1     0     0   101   102  0.0000000000e+00  0.0000000000e+00  1.8727532297e+02  1.8727532297e+02  0.0000000000e+00 0. 9.
       21    -1     0     0   102   103  0.0000000000e+00  0.0000000000e+00 -2.7044814522e+02  2.7044814522e+02  0.0000000000e+00 0. 9.
        6     2     1     2   101     0 -3.2763803418e+00 -8.1220244032e+01  8.0745145772e+01  2.0744029860e+02  1.7292841354e+02  2.715134e-13 9.
       -6     2     1     2     0   103  3.2763803418e+00  8.1220244032e+01 -1.6391796802e+02  2.5028316958e+02  1.7077793191e+02  1.286549e-13 9.
       24     2     3     0     0     0 -1.0110634135e+01  2.5405169254e+00 -1.3781983767e+01  8.0866247861e+01  7.8998277309e+01  1.031914e-13 9.
        5     1     3     0   101     0  6.8342537928e+00 -8.3760760957e+01  9.4527129539e+01  1.2657405074e+02  4.8000000000e+00 0. 9.
      -24     2     4     0     0     0 -1.2919972017e+01  7.6272968797e+01 -2.8275381419e+01  1.1350324173e+02  7.8096077006e+01  7.921095e-15 9.
       -5     1     4     0     0   103  1.6196352359e+01  4.9472752354e+00 -1.3564258660e+02  1.3677992785e+02  4.8000000000e+00 0. 9.
       -3     1     5     0     0   104 -2.8995653454e+01 -2.2616417436e+01 -2.8089159927e+01  4.6276356407e+01  5.0000000000e-01 0. 9.
        4     1     5     0   104     0  1.8885019320e+01  2.5156934362e+01  1.4307176160e+01  3.4589891455e+01  1.5000000000e+00 0. 9.
        1     1     7     0   105     0 -2.5035342900e+01  8.0855994197e+01 -4.2116971385e+01  9.4543156127e+01  3.3000000000e-01 0. 9.
       -2     1     7     0     0   105  1.2115370882e+01 -4.5830254008e+00  1.3841589966e+01  1.8960085607e+01  3.3000000000e-01 0. 9.
#pdf   21   21  2.881159e-02  4.160741e-02  1.891364e+02  3.323471e+00  2.316260e+00
</event>
<event>
    12  9999  1.000000e+00  1.742427e+02  7.875314e-03  1.075347e-01
       21    -1     0     0   101   102  0.0000000000e+00  0.0000000000e+00  9.5889151518e+01  9.5889151518e+01  0.0000000000e+00 0. 9.
       21    -1     0     0   103   101  0.0000000000e+00  0.0000000000e+00 -8.2846283183e+02  8.2846283183e+02  0.0000000000e+00 0. 9.
        6     2     1     2   103     0  2.3078872137e+00  3.0932429435e+01 -7.2959215204e+02  7.5011815450e+02  1.7149459427e+02  6.068394e-14 9.
       -6     2     1     2     0   102 -2.3078872137e+00 -3.0932429435e+01 -2.9815282762e+00  1.7423382885e+02  1.7142460754e+02  2.891304e-13 9.
       24     2     3     0     0     0  1.7326076010e+01 -1.4942218522e+01 -6.5813508381e+02  6.6375159894e+02  8.3071858942e+01  5.190795e-14 9.
        5     1     3     0   103     0 -1.5018188797e+01  4.5874647957e+01 -7.1457068228e+01  8.6366555562e+01  4.8000000000e+00 0. 9.
      -24     2     4     0     0     0  1.8249184192e+01 -7.7475528248e+01  2.5730014617e+01  1.1561432760e+02  7.9806947643e+01  1.412508e-14 9.
       -5     1     4     0     0   102 -2.0557071406e+01  4.6543098813e+01 -2.8711542894e+01  5.8619501254e+01  4.8000000000e+00 0. 9.
       -3     1     5     0     0   104  5.0675616576e+01 -1.1213479959e+01 -3.5809211537e+02  3.6183417934e+02  5.0000000000e-01 0. 9.
        4     1     5     0   104     0 -3.3349540566e+01 -3.7287385630e+00 -3.0004296844e+02  3.0191741960e+02  1.5000000000e+00 0. 9.
        3     1     7     0   105     0 -2.8556129230e+01 -5.2042113957e+01  1.1664441305e+01  6.0499118446e+01  5.0000000000e-01 0. 9.
       -4     1     7     0     0   105  4.6805313422e+01 -2.5433414291e+01  1.4065573313e+01  5.5115209150e+01  1.5000000000e+00 0. 9.
#pdf   21   21  1.475218e-02  1.274558e-01  1.742083e+02  5.966411e+00  5.864082e-01
</event>
<event>
    12  9999  1.000000e+00  1.740434e+02  7.875212e-03  1.075499e-01
       21    -1     0     0   101   102  0.0000000000e+00  0.0000000000e+00  4.5167863195e+02  4.5167863195e+02  0.0000000000e+00 0. 9.
       21    -1     0     0   102   103  0.0000000000e+00  0.0000000000e+00 -8.5914763011e+01  8.5914763011e+01  0.0000000000e+00 0. 9.
        6     2     1     2   101     0  2.1101930143e+01  1.9979619527e+01  3.0893794019e+02  3.5467705971e+02  1.7178093358e+02  5.954227e-14 9.
       -6     2     1     2     0   103 -2.1101930143e+01 -1.9979619527e+01  5.6825928749e+01  1.8291633525e+02  1.7141972720e+02  1.273339e-13 9.
       24     2     3     0     0     0  4.2890615430e+01  5.2389867017e+01  9.9490369516e+01  1.4156559636e+02  7.4553211790e+01  4.502718e-14 9.
        5     1     3     0   101     0 -2.1788685287e+01 -3.2410247490e+01  2.0944757068e+02  2.1311146335e+02  4.8000000000e+00 0. 9.
      -24     2     4     0     0     0 -2.9542481255e+01  8.5803426105e+00  9.9944407298e+01  1.3029354996e+02  7.7724797407e+01  2.167291e-14 9.
       -5     1     4     0     0   103  8.4405511112e+00 -2.8559962137e+01 -4.3118478548e+01  5.2622785299e+01  4.8000000000e+00 0. 9.
      -13     1     5     0     0     0  4.5321209148e+00  4.7385386261e+01  8.9878421146e+01  1.0170573584e+02  1.0566000000e-01  1.344364e+04 9.
       14     1     5     0     0     0  3.8358494516e+01  5.0044807562e+00  9.6119483697e+00  3.9859860519e+01  0.0000000000e+00 0. 9.
        1     1     7     0   104     0 -4.1302713336e+01  3.0542827023e+01  3.9189263573e+01  6.4611807674e+01  3.3000000000e-01 0. 9.
       -4     1     7     0     0   104  1.1760232081e+01 -2.1962484413e+01  6.0755143724e+01  6.5681742282e+01  1.5000000000e+00 0. 9.
#pdf   21   21  6.948902e-02  1.321766e-02  1.738655e+02  1.319189e+00  6.518812e+00
</event>
<event>
    12  9999  1.000000e+00  1.711171e+02  7.873687e-03  1.077756e-01
       21    -1     0     0   101   102  0.0000000000e+00  0.0000000000e+00  3.9266793906e+01  3.9266793906e+01  0.0000000000e+00 0. 9.
       21    -1     0     0   102   103  0.0000000000e+00  0.0000000000e+00 -1.4211080637e+03  1.4211080637e+03  0.0000000000e+00 0. 9.
        6     2     1     2   101     0  9.7339271855e-01 -2.3881386505e+00 -1.8745497732e+02  2.5378804300e+02  1.7106242003e+02  1.180358e-13 9.
       -6     2     1     2     0   103 -9.7339271855e-01  2.3881386505e+00 -1.1943862925e+03  1.2065868146e+03  1.7113291569e+02  1.949250e-13 9.
       24     2     3     0     0     0 -2.6234011130e+01  5.3434809669e+01 -1.5518768107e+02  1.8364060691e+02  7.8084274498e+01  2.092616e-13 9.
        5     1     3     0   101     0  2.7207403849e+01 -5.5822948320e+01 -3.2267296245e+01  7.0147436092e+01  4.8000000000e+00 0. 9.
      -24     2     4     0     0     0  1.0459912316e+01 -4.8625518812e+01 -1.0214152016e+03  1.0258241194e+03  8.0946025046e+01  1.047403e-13 9.
       -5     1     4     0     0   103 -1.1433305034e+01  5.1013657462e+01 -1.7297109086e+02  1.8076269522e+02  4.8000000000e+00 0. 9.
      -15     1     5     0     0     0 -3.4941427585e+01  5.5695997964e+00 -2.1654850960e+01  4.1521241106e+01  1.7768200000e+00  1.508575e-02 9.
       16     1     5     0     0     0  8.7074164550e+00  4.7865209873e+01 -1.3353283011e+02  1.4211936580e+02  0.0000000000e+00 0. 9.
        1     1     7     0   104     0 -1.9450221663e+01  1.3878147136e+01 -3.5905385373e+02  3.5984815252e+02  3.3000000000e-01 0. 9.
       -2     1     7     0     0   104  2.9910133979e+01 -6.2503665948e+01 -6.6236134788e+02  6.6597596686e+02  3.3000000000e-01 0. 9.
#pdf   21   21  6.041045e-03  2.186320e-01  1.710819e+02  1.172412e+01  2.292849e-01
</event>
<event>
    12  9999  1.000000e+00  1.764532e+02  7.876448e-03  1.073676e-01
       21    -1     0     0   101   102  0.0000000000e+00  0.0000000000e+00  1.4942649885e+02  1.4942649885e+02  0.0000000000e+00 0. 9.
       21    -1     0     0   103   101  0.0000000000e+00  0.0000000000e+00 -2.3489830843e+02  2.3489830843e+02  0.0000000000e+00 0. 9.
        6     2     1     2   103     0  2.7221270465e+01  2.9833206225e+01 -1.0680240452e+02  2.0440170435e+02  1.6953549885e+02  2.782355e-14 9.
       -6     2     1     2     0   102 -2.7221270465e+01 -2.9833206225e+01  2.1330594937e+01  1.7992310294e+02  1.7402962659e+02  2.660648e-13 9.
       24     2     3     0     0     0  7.2010286963e+01  2.8351315491e+01 -2.9857273092e+01  1.1522858480e+02  7.9980569395e+01  1.544270e-13 9.
        5     1     3     0   103     0 -4.4789016498e+01  1.4818907340e+00 -7.6945131424e+01  8.9173119542e+01  4.8000000000e+00 0. 9.
      -24     2     4     0     0     0 -8.8395137114e+01 -1.4299396317e+01  1.2134710760e+01  1.1596103999e+02  7.2674194795e+01  8.346033e-15 9.
       -5     1     4     0     0   102  6.1173866649e+01 -1.5533809908e+01  9.1958841769e+00  6.3962062950e+01  4.8000000000e+00 0. 9.
       -1     1     5     0     0   104  6.9368971140e+00  3.0392238325e+00 -4.3439571509e+01  4.4096062137e+01  3.3000000000e-01 0. 9.
        2     1     5     0   104     0  6.5073389849e+01  2.5312091658e+01  1.3582298418e+01  7.1132522667e+01  3.3000000000e-01 0. 9.
        1     1     7     0   105     0 -1.6450953849e+01  2.7482689866e+01  5.4868291274e+00  3.2498404864e+01  3.3000000000e-01 0. 9.
       -2     1     7     0     0   105 -7.1944183265e+01 -4.1782086183e+01  6.6478816330e+00  8.3462635123e+01  3.3000000000e-01 0. 9.
#pdf   21   21  2.298869e-02  3.613820e-02  1.742794e+02  4.092997e+00  2.680255e+00
</event>
<event>
    12  9999  1.000000e+00  2.322537e+02  7.901244e-03  1.038513e-01
        1    -1     0     0   101     0  0.0000000000e+00  0.0000000000e+00  2.7659624915e+03  2.7659624915e+03  0.0000000000e+00 0. 9.
       -1    -1     0     0     0   102  0.0000000000e+00  0.0000000000e+00 -2.0427504499e+01  2.0427504499e+01  0.0000000000e+00 0. 9.
        6     2     1     2   101     0  5.6215134934e+01 -1.4667421674e+02  1.0760386299e+03  1.1008115399e+03  1.7103638819e+02  1.371337e-13 9.
       -6     2     1     2     0   102 -5.6215134934e+01  1.4667421674e+02  1.6694963571e+03  1.6855784561e+03  1.7112328318e+02  6.676328e-15 9.
       24     2     3     0     0     0 -2.8242021599e+01 -9.2021635885e+01  7.2257195605e+02  7.3327698995e+02  7.9494144847e+01  1.381843e-13 9.
        5     1     3     0   101     0  8.4457156533e+01 -5.4652580852e+01  3.5346667386e+02  3.6753454996e+02  4.8000000000e+00 0. 9.
      -24     2     4     0     0     0 -4.9066919978e+01  1.8387370590e+01  5.2589677023e+02  5.3477366512e+02  8.1668855299e+01  7.089396e-14 9.
       -5     1     4     0     0   102 -7.1482149562e+00  1.2828684615e+02  1.1435995868e+03  1.1508047909e+03  4.8000000000e+00 0. 9.
      -15     1     5     0     0     0 -1.3409789456e+01  3.2961304013e+00  2.7852642190e+02  2.7887418617e+02  1.7768200000e+00  5.552280e-02 9.
       16     1     5     0     0     0 -1.4832232143e+01 -9.5317766286e+01  4.4404553415e+02  4.5440280378e+02  0.0000000000e+00 0. 9.
        3     1     7     0   103     0 -6.1942747985e+01  3.8418276359e+01  4.1303113861e+02  4.1941368534e+02  5.0000000000e-01 0. 9.
       -4     1     7     0     0   103  1.2875828007e+01 -2.0030905769e+01  1.1286563162e+02  1.1535997978e+02  1.5000000000e+00 0. 9.
#pdf    1   -1  4.255327e-01  3.142693e-03  2.322217e+02  5.034174e-02  9.897295e-01
</event>
<event>
    12  9999  1.000000e+00  2.238243e+02  7.897899e-03  1.043108e-01
       21    -1     0     0   101   102  0.0000000000e+00  0.0000000000e+00  1.0420875086e+02  1.0420875086e+02  0.0000000000e+00 0. 9.
       21    -1     0     0   102   103  0.0000000000e+00  0.0000000000e+00 -5.2383270056e+02  5.2383270056e+02  0.0000000000e+00 0. 9.
        6     2     1     2   101     0 -2.2765767325e+00  1.4364985330e+02 -1.1943347719e+02  2.5337518152e+02  1.7115537964e+02  8.925211e-14 9.
       -6     2     1     2     0   103  2.2765767325e+00 -1.4364985330e+02 -3.0019047251e+02  3.7466626990e+02  1.7210470900e+02  2.720522e-13 9.
       24     2     3     0     0     0  3.8423824360e+01  4.5259601144e+01 -1.0567124266e+02  1.4590610006e+02  8.1224114257e+01  1.067691e-13 9.
        5     1     3     0   101     0 -4.0700401092e+01  9.8390252158e+01 -1.3762234535e+01  1.0746908145e+02  4.8000000000e+00 0. 9.
      -24     2     4     0     0     0  3.5076597273e+01 -1.0451679236e+02 -2.9092901828e+02  3.2255051086e+02  8.5117629290e+01  3.778814e-14 9.
       -5     1     4     0     0   103 -3.2800020540e+01 -3.9133060939e+01 -9.2614542278e+00  5.2115759040e+01  4.8000000000e+00 0. 9.
       -3     1     5     0     0   104  8.6342114424e+00  6.4504206846e+01 -7.0091719550e+01  9.5647485370e+01  5.0000000000e-01 0. 9.
        4     1     5     0   104     0  2.9789612918e+01 -1.9244605702e+01 -3.5579523108e+01  5.0258614694e+01  1.5000000000e+00 0. 9.
       13     1     7     0     0     0 -2.4418663368e+01 -3.0420321806e+01 -4.9021014474e+01  6.2647730394e+01  1.0566000000e-01  2.365186e+05 9.
      -14     1     7     0     0     0  5.9495260641e+01 -7.4096470557e+01 -2.4190800380e+02  2.5990278046e+02  0.0000000000e+00 0. 9.
#pdf   21   21  1.603212e-02  8.058965e-02  2.234606e+02  5.561054e+00  1.075492e+00
</event>
<event>
    12  9999  1.000000e+00  2.165395e+02  7.894907e-03  1.047255e-01
       21    -1     0     0   101   102  0.0000000000e+00  0.0000000000e+00  1.6769149077e+02  1.6769149077e+02  0.0000000000e+00 0. 9.
       21    -1     0     0   103   101  0.0000000000e+00  0.0000000000e+00 -3.5203278139e+02  3.5203278139e+02  0.0000000000e+00 0. 9.
        6     2     1     2   103     0  1.3175734649e+02  1.2966436293e+01 -2.1019578924e+02  3.0213363453e+02  1.7197190607e+02  4.229153e-13 9.
       -6     2     1     2     0   102 -1.3175734649e+02 -1.2966436293e+01  2.5854498630e+01  2.1759063763e+02  1.7073108580e+02  4.191037e-14 9.
       24     2     3     0     0     0  1.2389686824e+02  6.2560765183e+01 -1.2347011844e+02  2.0180534066e+02  7.8843148528e+01  4.955164e-14 9.
        5     1     3     0   103     0  7.8604782487e+00 -4.9594328890e+01 -8.6725670803e+01  1.0032829388e+02  4.8000000000e+00 0. 9.
      -24     2     4     0     0     0 -5.3367602406e+01  5.5587645249e+01  2.1052270343e+01  1.1323204684e+02  8.0250925570e+01  3.482689e-14 9.
       -5     1     4     0     0   102 -7.8389744083e+01 -6.8554081542e+01  4.8022282869e+00  1.0435859078e+02  4.8000000000e+00 0. 9.
      -13     1     5     0     0     0  9.7638484284e+01  9.7045960165e+00 -9.3823926934e+01  1.3575858436e+02  1.0566000000e-01  6.762206e+05 9.
       14     1     5     0     0     0  2.6258383956e+01  5.2856169166e+01 -2.9646191506e+01  6.6046756300e+01  0.0000000000e+00 0. 9.
       15     1     7     0     0     0  2.1276138410e+01  1.6309286801e+01  3.7321730710e+00  2.7124769248e+01  1.7768200000e+00  3.865401e-02 9.
      -16     1     7     0     0     0 -7.4643740817e+01  3.9278358448e+01  1.7320097272e+01  8.6107277596e+01  0.0000000000e+00 0. 9.
#pdf   21   21  2.579869e-02  5.415889e-02  2.160491e+02  3.666480e+00  1.731686e+00
</event>
<event>
    12  9999  1.000000e+00  2.444690e+02  7.905886e-03  1.032210e-01
       21    -1     0     0   101   102  0.0000000000e+00  0.0000000000e+00  3.7928697249e+02  3.7928697249e+02  0.0000000000e+00 0. 9.
       21    -1     0     0   102   103  0.0000000000e+00  0.0000000000e+00 -1.6836702072e+02  1.6836702072e+02  0.0000000000e+00 0. 9.
        6     2     1     2   101     0 -1.6308659217e+02 -6.3237281031e+01  1.7511926514e+02  3.0138439014e+02  1.7195814416e+02  1.935838e-13 9.
       -6     2     1     2     0   103  1.6308659217e+02  6.3237281031e+01  3.5800686629e+01  2.4626960307e+02  1.6961968629e+02  1.679986e-13 9.
       24     2     3     0     0     0 -6.9353200617e+01  1.8254780929e+01  1.3218076630e+02  1.6987903080e+02  7.9019153767e+01  3.268034e-14 9.
        5     1     3     0   101     0 -9.3733391550e+01 -8.1492061960e+01  4.2938498833e+01  1.3150535934e+02  4.8000000000e+00 0. 9.
      -24     2     4     0     0     0  1.4987702252e+02  8.9535926815e+01 -8.7512189107e+00  1.9265968060e+02  8.1002250749e+01  1.373475e-13 9.
       -5     1     4     0     0   103  1.3209569649e+01 -2.6298645784e+01  4.4551905540e+01  5.3609922474e+01  4.8000000000e+00 0. 9.
       -3     1     5     0     0   104 -1.4081330311e+01  1.2849423283e+01  1.0737369461e+02  1.0905389418e+02  5.0000000000e-01 0. 9.
        2     1     5     0   104     0 -5.5271870306e+01  5.4053576458e+00  2.4807071692e+01  6.0825136616e+01  3.3000000000e-01 0. 9.
        3     1     7     0   105     0  6.7881262138e+01  4.0328351501e+01 -4.4407169362e+01  9.0589670355e+01  5.0000000000e-01 0. 9.
       -4     1     7     0     0   105  8.1995760380e+01  4.9207575314e+01  3.5655950451e+01  1.0207001024e+02  1.5000000000e+00 0. 9.
#pdf   21   21  5.835184e-02  2.590262e-02  2.436535e+02  1.577847e+00  3.638337e+00
</event>
<event>
    12  9999  1.000000e+00  1.828567e+02  7.879656e-03  1.068978e-01
       21    -1     0     0   101   102  0.0000000000e+00  0.0000000000e+00  3.8649547266e+01  3.8649547266e+01  0.0000000000e+00 0. 9.
       21    -1     0     0   102   103  0.0000000000e+00  0.0000000000e+00 -1.3745487222e+03  1.3745487222e+03  0.0000000000e+00 0. 9.
        6     2     1     2   101     0 -1.4138992460e+01 -6.2135451871e+01 -2.3866237015e+02  3.0089151317e+02  1.7180002994e+02  4.426254e-14 9.
       -6     2     1     2     0   103  1.4138992460e+01  6.2135451871e+01 -1.0972368048e+03  1.1123067563e+03  1.7098827105e+02  8.113505e-14 9.
       24     2     3     0     0     0 -6.7140590114e+01 -9.3846877431e+00 -1.1316265588e+02  1.5472369609e+02  8.0856071139e+01  3.426779e-13 9.
        5     1     3     0   101     0  5.3001597654e+01 -5.2750764128e+01 -1.2549971427e+02  1.4616781709e+02  4.8000000000e+00 0. 9.
      -24     2     4     0     0     0  4.7628420982e+01  5.2940173091e+01 -1.0386094789e+03  1.0439964473e+03  7.8407932675e+01  1.013993e-13 9.
       -5     1     4     0     0   103 -3.3489428522e+01  9.1952787804e+00 -5.8627325910e+01  6.8310309017e+01  4.8000000000e+00 0. 9.
      -11     1     5     0     0     0 -5.7520544989e+01 -2.4257383534e+00 -1.2520831685e+02  1.3781008639e+02  5.1100000000e-04 0. 9.
       12     1     5     0     0     0 -9.6200451248e+00 -6.9589493897e+00  1.2045660969e+01  1.6913609697e+01  0.0000000000e+00 0. 9.
        3     1     7     0   104     0  1.8820287670e+01 -1.6763808989e+01 -4.2850475999e+02  4.2924562648e+02  5.0000000000e-01 0. 9.
       -4     1     7     0     0   104  2.8808133312e+01  6.9703982080e+01 -6.1010471889e+02  6.1475082080e+02  1.5000000000e+00 0. 9.
#pdf   21   21  5.946084e-03  2.114690e-01  1.824766e+02  1.188494e+01  2.426372e-01
</event>
<event>
    12  9999  1.000000e+00  3.039022e+02  7.925658e-03  1.006293e-01
       21    -1     0     0   101   102  0.0000000000e+00  0.0000000000e+00  2.3369536100e+02  2.3369536100e+02  0.0000000000e+00 0. 9.
       21    -1     0     0   103   101  0.0000000000e+00  0.0000000000e+00 -4.0210755036e+02  4.0210755036e+02  0.0000000000e+00 0. 9.
        6     2     1     2   103     0  3.3313176920e+01 -2.4897406362e+02 -4.2573444708e+01  3.0698448036e+02  1.7125746955e+02  4.081763e-13 9.
       -6     2     1     2     0   102 -3.3313176920e+01  2.4897406362e+02 -1.2583874465e+02  3.2881843100e+02  1.7084589197e+02  8.803367e-14 9.
       24     2     3     0     0     0  7.0964412382e+01 -9.0710430271e+01 -7.8049828618e+00  1.4056068665e+02  8.0200117772e+01  1.095685e-14 9.
        5     1     3     0   103     0 -3.7651235461e+01 -1.5826363335e+02 -3.4768461847e+01  1.6642379371e+02  4.8000000000e+00 0. 9.
      -24     2     4     0     0     0  4.0108301166e+01  1.7740070186e+02 -7.0452374070e+01  2.1218160319e+02  8.3533292018e+01  3.234541e-13 9.
       -5     1     4     0     0   102 -7.3421478086e+01  7.1573361758e+01 -5.5386370576e+01  1.1663682782e+02  4.8000000000e+00 0. 9.
       -1     1     5     0     0   104 -1.2483551129e+01 -3.4966017279e+01 -1.4782145955e+01  3.9963510259e+01  3.3000000000e-01 0. 9.
        2     1     5     0   104     0  8.3447963511e+01 -5.5744412992e+01  6.9771630935e+00  1.0059717640e+02  3.3000000000e-01 0. 9.
        1     1     7     0   105     0 -2.0666111928e+01  9.4401639526e+01 -4.2570662126e+01  1.0559890104e+02  3.3000000000e-01 0. 9.
       -2     1     7     0     0   105  6.0774413094e+01  8.2999062334e+01 -2.7881711943e+01  1.0658270214e+02  3.3000000000e-01 0. 9.
#pdf   21   21  3.595313e-02  6.186270e-02  3.037864e+02  2.624121e+00  1.450134e+00
</event>
<event>
    12  9999  1.000000e+00  1.944686e+02  7.885203e-03  1.060963e-01
       21    -1     0     0   101   102  0.0000000000e+00  0.0000000000e+00  2.8909171999e+02  2.8909171999e+02  0.0000000000e+00 0. 9.
       21    -1     0     0   103   101  0.0000000000e+00  0.0000000000e+00 -1.5402894011e+02  1.5402894011e+02  0.0000000000e+00 0. 9.
        6     2     1     2   103     0  5.3661080209e+01 -7.6162428735e+01 -1.8510700577e+01  1.9523909162e+02  1.7057382501e+02  2.784582e-14 9.
       -6     2     1     2     0   102 -5.3661080209e+01  7.6162428735e+01  1.5357348046e+02  2.4788156848e+02  1.7082222048e+02  7.573055e-14 9.
       24     2     3     0     0     0  2.2436823135e+00 -9.9570171661e+01 -3.6894692754e+01  1.3563470920e+02  8.4358181528e+01  8.250548e-14 9.
        5     1     3     0   103     0  5.1417397896e+01  2.3407742926e+01  1.8383992177e+01  5.9604382420e+01  4.8000000000e+00 0. 9.
      -24     2     4     0     0     0 -8.8580870537e+01  8.5798272413e+01  1.5243416256e+02  2.1132231130e+02  7.8822783296e+01  1.137777e-13 9.
       -5     1     4     0     0   102  3.4919790327e+01 -9.6358436781e+00  1.1393179061e+00  3.6559257175e+01  4.8000000000e+00 0. 9.
      -15     1     5     0     0     0  6.3568656814e+00 -8.2798854074e+01  1.1867611889e+01  8.3905049183e+01  1.7768200000e+00  7.051120e-02 9.
       16     1     5     0     0     0 -4.1131833679e+00 -1.6771317587e+01 -4.8762304643e+01  5.1729660014e+01  0.0000000000e+00 0. 9.
        1     1     7     0   104     0 -7.7440135725e+01  2.1360010593e+01  7.4210653627e+01  1.0936432090e+02  3.3000000000e-01 0. 9.
       -2     1     7     0     0   104 -1.1140734812e+01  6.4438261820e+01  7.8223508931e+01  1.0195799041e+02  3.3000000000e-01 0. 9.
#pdf   21   21  4.447565e-02  2.369676e-02  1.943596e+02  2.157856e+00  3.973695e+00
</event>
<event>
    12  9999  1.000000e+00  1.753139e+02  7.875866e-03  1.074534e-01
       21    -1     0     0   101   102  0.0000000000e+00  0.0000000000e+00  4.5291743147e+01  4.5291743147e+01  0.0000000000e+00 0. 9.
       21    -1     0     0   102   103  0.0000000000e+00  0.0000000000e+00 -7.3856050851e+02  7.3856050851e+02  0.0000000000e+00 0. 9.
        6     2     1     2   101     0  1.6009786958e+01  2.6987440673e+01 -2.3301815697e+02  2.9095454064e+02  1.7138391993e+02  1.251570e-13 9.
       -6     2     1     2     0   103 -1.6009786958e+01 -2.6987440673e+01 -4.6025060840e+02  4.9289771102e+02  1.7358829386e+02  1.547488e-15 9.
       24     2     3     0     0     0 -1.1056824984e+00  7.4213291552e+01 -2.0022097059e+02  2.3077218675e+02  8.7513027225e+01  1.116848e-13 9.
        5     1     3     0   101     0  1.7115469456e+01 -4.7225850880e+01 -3.2797186375e+01  6.0182353893e+01  4.8000000000e+00 0. 9.
      -24     2     4     0     0     0  3.2628468792e+01  2.9099811949e+01 -3.3838896835e+02  3.5012250608e+02  7.8531900104e+01  1.207703e-14 9.
       -5     1     4     0     0   103 -4.8638255750e+01 -5.6087252622e+01 -1.2186164005e+02  1.4277520494e+02  4.8000000000e+00 0. 9.
       -3     1     5     0     0   104 -1.8035183904e+01 -7.2913195036e+00 -9.3040120340e+01  9.5053380747e+01  5.0000000000e-01 0. 9.
        4     1     5     0   104     0  1.6929501406e+01  8.1504611056e+01 -1.0718085025e+02  1.3571880600e+02  1.5000000000e+00 0. 9.
        1     1     7     0   105     0  4.7705777049e+01  2.9739385601e+01 -1.3585833776e+02  1.4703016378e+02  3.3000000000e-01 0. 9.
       -2     1     7     0     0   105 -1.5077308257e+01 -6.3957365117e-01 -2.0253063059e+02  2.0309234231e+02  3.3000000000e-01 0. 9.
#pdf   21   21  6.967960e-03  1.136247e-01  1.742328e+02  1.059287e+01  6.940375e-01
</event>
<event>
    12  9999  1.000000e+00  1.753689e+02  7.875894e-03  1.074492e-01
       21    -1     0     0   101   102  0.0000000000e+00  0.0000000000e+00  6.5207034335e+02  6.5207034335e+02  0.0000000000e+00 0. 9.
       21    -1     0     0   102   103  0.0000000000e+00  0.0000000000e+00 -6.5335698902e+01  6.5335698902e+01  0.0000000000e+00 0. 9.
        6     2     1     2   101     0 -4.9968551323e+00 -2.6809129784e+01  4.8382509313e+02  5.1499523047e+02  1.7432632808e+02  2.366465e-13 9.
       -6     2     1     2     0   103  4.9968551323e+00  2.6809129784e+01  1.0290955131e+02  2.0241081178e+02  1.7215127932e+02  9.557898e-14 9.
       24     2     3     0     0     0 -5.4064333811e+01 -5.1121087849e+01  2.2516927274e+02  2.5056270185e+02  8.0895910653e+01  7.004140e-14 9.
        5     1     3     0   101     0  4.9067478679e+01  2.4311958065e+01  2.5865582039e+02  2.6443252862e+02  4.8000000000e+00 0. 9.
      -24     2     4     0     0     0 -2.3397981508e+01  7.6978206052e+01  6.1767932341e+01  1.3142577270e+02  8.3572402848e+01  5.440770e-14 9.
       -5     1     4     0     0   103  2.8394836640e+01 -5.0169076268e+01  4.1141618973e+01  7.0985039080e+01  4.8000000000e+00 0. 9.
       -3     1     5     0     0   104 -2.2626455305e+01 -6.1687771856e+00  5.4338015869e+00  2.4078756016e+01  5.0000000000e-01 0. 9.
        4     1     5     0   104     0 -3.1437878507e+01 -4.4952310663e+01  2.1973547115e+02  2.2648394583e+02  1.5000000000e+00 0. 9.
        3     1     7     0   105     0  5.5177085841e+00  6.8553276984e+01  7.2010950396e+01  9.9578229901e+01  5.0000000000e-01 0. 9.
       -4     1     7     0     0   105 -2.8915690092e+01  8.4249290679e+00 -1.0243018055e+01  3.1847542797e+01  1.5000000000e+00 0. 9.
#pdf   21   21  1.003185e-01  1.005165e-02  1.742979e+02  8.258851e-01  8.070979e+00
</event>
<event>
    12  9999  1.000000e+00  1.982270e+02  7.886929e-03  1.058495e-01
       21    -1     0     0   101   102  0.0000000000e+00  0.0000000000e+00  2.6980884592e+01  2.6980884592e+01  0.0000000000e+00 0. 9.
       21    -1     0     0   103   101  0.0000000000e+00  0.0000000000e+00 -1.5297593646e+03  1.5297593646e+03  0.0000000000e+00 0. 9.
        6     2     1     2   103     0 -8.5568451711e+01  3.6271190249e+01 -9.3265415536e+02  9.5414245362e+02  1.7862387608e+02  9.554914e-14 9.
       -6     2     1     2     0   102  8.5568451711e+01 -3.6271190249e+01 -5.7012432462e+02  6.0259779555e+02  1.7159486737e+02  3.316596e-13 9.
       24     2     3     0     0     0 -9.3052628837e+00  3.5832825931e+01 -7.6254533987e+02  7.6765836517e+02  8.0333000284e+01  2.293334e-14 9.
        5     1     3     0   103     0 -7.6263188828e+01  4.3836431853e-01 -1.7010881549e+02  1.8648408844e+02  4.8000000000e+00 0. 9.
      -24     2     4     0     0     0  9.2572450605e+00 -2.4135735549e+01 -1.2928441922e+02  1.5501145560e+02  8.1522144207e+01  1.230118e-14 9.
       -5     1     4     0     0   102  7.6311206651e+01 -1.2135454700e+01 -4.4083990540e+02  4.4758633995e+02  4.8000000000e+00 0. 9.
       -3     1     5     0     0   104 -3.3503922263e+01  4.8950966696e+01 -4.4861472193e+02  4.5251975502e+02  5.0000000000e-01 0. 9.
        4     1     5     0   104     0  2.4198659379e+01 -1.3118140765e+01 -3.1393061793e+02  3.1513861015e+02  1.5000000000e+00 0. 9.
        3     1     7     0   105     0 -2.7243897976e+01  1.5627486544e+01 -5.1443736542e+01  6.0275669569e+01  5.0000000000e-01 0. 9.
       -4     1     7     0     0   105  3.6501143036e+01 -3.9763222094e+01 -7.7840682678e+01  9.4735786027e+01  1.5000000000e+00 0. 9.
#pdf   21   21  4.150905e-03  2.353476e-01  1.951470e+02  1.529505e+01  1.906498e-01
</event>
<event>
    12  9999  1.000000e+00  1.718983e+02  7.874096e-03  1.077149e-01
       21    -1     0     0   101   102  0.0000000000e+00  0.0000000000e+00  5.4335498015e+01  5.4335498015e+01  0.0000000000e+00 0. 9.
       21    -1     0     0   102   103  0.0000000000e+00  0.0000000000e+00 -6.2713627749e+02  6.2713627749e+02  0.0000000000e+00 0. 9.
        6     2     1     2   101     0 -2.0264264927e+01  2.0582313738e+01 -1.6469336566e+02  2.3928854524e+02  1.7117485540e+02  5.871902e-15 9.
       -6     2     1     2     0   103  2.0264264927e+01 -2.0582313738e+01 -4.0810741382e+02  4.4218323027e+02  1.6775003976e+02  5.350671e-13 9.
       24     2     3     0     0     0  3.0684416773e+01  5.2645156775e+01 -5.6280630733e+01  1.1519118361e+02  7.9927801306e+01  2.044329e-14 9.
        5     1     3     0   101     0 -5.0948681701e+01 -3.2062843037e+01 -1.0841273492e+02  1.2409736163e+02  4.8000000000e+00 0. 9.
      -24     2     4     0     0     0  6.1185058409e+01  2.9391942148e+01 -2.7454129376e+02  2.9374170636e+02  7.9396287320e+01  1.498633e-14 9.
       -5     1     4     0     0   103 -4.0920793482e+01 -4.9974255886e+01 -1.3356612006e+02  1.4844152390e+02  4.8000000000e+00 0. 9.
      -13     1     5     0     0     0  1.2583891786e+01 -1.4055931273e+01 -3.9940918458e+01  4.4172521637e+01  1.0566000000e-01  3.131799e+04 9.
       14     1     5     0     0     0  1.8100524988e+01  6.6701088047e+01 -1.6339712275e+01  7.1018661975e+01  0.0000000000e+00 0. 9.
       15     1     7     0     0     0  2.6814074553e+00  4.3643743198e+01 -1.2964270854e+02  1.3682965772e+02  1.7768200000e+00  2.689325e-02 9.
      -16     1     7     0     0     0  5.8503650954e+01 -1.4251801050e+01 -1.4489858522e+02  1.5691204864e+02  0.0000000000e+00 0. 9.
#pdf   21   21  8.359307e-03  9.648250e-02  1.702185e+02  9.265984e+00  8.726180e-01
</event>
<event>
    12  9999  1.000000e+00  1.812597e+02  7.878867e-03  1.070130e-01
       21    -1     0     0   101   102  0.0000000000e+00  0.0000000000e+00  6.9704453232e+01  6.9704453232e+01  0.0000000000e+00 0. 9.
       21    -1     0     0   103   101  0.0000000000e+00  0.0000000000e+00 -1.3395014974e+03  1.3395014974e+03  0.0000000000e+00 0. 9.
        6     2     1     2   103     0 -1.3160193004e+01 -6.3461251787e+01 -1.2013753544e+03  1.2148800060e+03  1.6861247207e+02  5.239640e-14 9.
       -6     2     1     2     0   102  1.3160193004e+01  6.3461251787e+01 -6.8421689757e+01  1.9432594459e+02  1.6994270786e+02  1.131033e-14 9.
       24     2     3     0     0     0 -3.8424462684e+01 -1.0068103221e+02 -8.3993587571e+02  8.5062030179e+02  8.0308859632e+01  1.853466e-14 9.
        5     1     3     0   103     0  2.5264269680e+01  3.7219780425e+01 -3.6143947870e+02  3.6425970425e+02  4.8000000000e+00 0. 9.
      -24     2     4     0     0     0 -3.3345372591e+01  6.0379277212e+01 -9.3552980188e+01  1.4115745808e+02  8.0098045423e+01  1.054993e-14 9.
       -5     1     4     0     0   102  4.6505565595e+01  3.0819745747e+00  2.5131290432e+01  5.3168486506e+01  4.8000000000e+00 0. 9.
      -15     1     5     0     0     0  2.1275594080e+01 -5.5491957694e+01 -3.8503319674e+02  3.8959687877e+02  1.7768200000e+00  6.830024e-04 9.
       16     1     5     0     0     0 -5.9700056764e+01 -4.5189074519e+01 -4.5490267897e+02  4.6102342302e+02  0.0000000000e+00 0. 9.
        1     1     7     0   104     0  2.4575864459e+00  1.1258683553e+00 -6.6927756072e+01  6.6983137755e+01  3.3000000000e-01 0. 9.
       -2     1     7     0     0   104 -3.5802959037e+01  5.9253408857e+01 -2.6625224117e+01  7.4174320329e+01  3.3000000000e-01 0. 9.
#pdf   21   21  1.072376e-02  2.060772e-01  1.806397e+02  7.683810e+00  2.560394e-01
</event>
<event>
    12  9999  1.000000e+00  1.781697e+02  7.877319e-03  1.072396e-01
       21    -1     0     0   101   102  0.0000000000e+00  0.0000000000e+00  5.3302691596e+01  5.3302691596e+01  0.0000000000e+00 0. 9.
       21    -1     0     0   102   103  0.0000000000e+00  0.0000000000e+00 -1.9673334659e+03  1.9673334659e+03  0.0000000000e+00 0. 9.
        6     2     1     2   101     0  1.5159530883e+00 -3.3456677810e+01 -1.1998578030e+02  2.1814989045e+02  1.7908416967e+02  3.528509e-13 9.
       -6     2     1     2     0   103 -1.5159530883e+00  3.3456677810e+01 -1.7940449940e+03  1.8024862671e+03  1.7099021890e+02  8.962317e-13 9.
       24     2     3     0     0     0  5.1601921379e+01 -6.8387255834e+01 -5.5942941184e+01  1.2953118621e+02  7.9430098080e+01  1.058967e-13 9.
        5     1     3     0   101     0 -5.0085968290e+01  3.4930578024e+01 -6.4042839116e+01  8.8618704249e+01  4.8000000000e+00 0. 9.
      -24     2     4     0     0     0  6.3451015609e+01  6.0180819413e+00 -9.3477468584e+02  9.4031338063e+02  7.9519128637e+01  1.525068e-13 9.
       -5     1     4     0     0   103 -6.4966968697e+01  2.7438595868e+01 -8.5927030820e+02  8.6217288644e+02  4.8000000000e+00 0. 9.
       -3     1     5     0     0   104  4.4006031176e+00 -4.6692183739e+00 -4.9546671815e+01  4.9962882182e+01  5.0000000000e-01 0. 9.
        4     1     5     0   104     0  4.7201318261e+01 -6.3718037460e+01 -6.3962693694e+00  7.9568304023e+01  1.5000000000e+00 0. 9.
       15     1     7     0     0     0  5.7405371501e+01 -1.6086294469e+01 -8.6095647941e+02  8.6301990827e+02  1.7768200000e+00  1.703212e-01 9.
      -16     1     7     0     0     0  6.0456441072e+00  2.2104376410e+01 -7.3818206434e+01  7.7293472366e+01  0.0000000000e+00 0. 9.
#pdf   21   21  8.200414e-03  3.026667e-01  1.742392e+02  9.404098e+00  1.022838e-01
</event>
<event>
    12  9999  1.000000e+00  2.009239e+02  7.888148e-03  1.056760e-01
       21    -1     0     0   101   102  0.0000000000e+00  0.0000000000e+00  7.3007146821e+01  7.3007146821e+01  0.0000000000e+00 0. 9.
       21    -1     0     0   102   103  0.0000000000e+00  0.0000000000e+00 -5.5648637922e+02  5.5648637922e+02  0.0000000000e+00 0. 9.
        6     2     1     2   101     0  9.6965245509e+01 -4.1510731687e+01 -2.1681112924e+02  2.9565834847e+02  1.7111806912e+02  1.197251e-13 9.
       -6     2     1     2     0   103 -9.6965245509e+01  4.1510731687e+01 -2.6666810316e+02  3.3383517757e+02  1.7090537983e+02  3.516622e-13 9.
       24     2     3     0     0     0  1.4057340122e+01 -5.1023573003e+01 -3.9870584752e+01  9.9966725738e+01  7.4850978037e+01  3.498316e-13 9.
        5     1     3     0   101     0  8.2907905387e+01  9.5128413164e+00 -1.7694054449e+02  1.9569162273e+02  4.8000000000e+00 0. 9.
      -24     2     4     0     0     0 -4.7098724882e+01  8.0661385446e+01 -2.2865451586e+02  2.5975740500e+02  8.0414382053e+01  3.164206e-13 9.
       -5     1     4     0     0   103 -4.9866520627e+01 -3.9150653760e+01 -3.8013587304e+01  7.4077772571e+01  4.8000000000e+00 0. 9.
       -3     1     5     0     0   104  7.7693031385e+00 -3.2288677087e+01  1.8712158225e+01  3.8122376693e+01  5.0000000000e-01 0. 9.
        4     1     5     0   104     0  6.2880369830e+00 -1.8734895915e+01 -5.8582742977e+01  6.1844349045e+01  1.5000000000e+00 0. 9.
        1     1     7     0   105     0 -2.2678698990e+01  4.1707232415e+01 -3.0707246040e+01  5.6540786013e+01  3.3000000000e-01 0. 9.
       -2     1     7     0     0   105 -2.4420025892e+01  3.8954153031e+01 -1.9794726982e+02  2.0321661898e+02  3.3000000000e-01 0. 9.
#pdf   21   21  1.123187e-02  8.561329e-02  2.008334e+02  7.419253e+00  1.005200e+00
</event>
<event>
    12  9999  1.000000e+00  2.112561e+02  7.892675e-03  1.050373e-01
       21    -1     0     0   101   102  0.0000000000e+00  0.0000000000e+00  1.3950199922e+03  1.3950199922e+03  0.0000000000e+00 0. 9.
       21    -1     0     0   103   101  0.0000000000e+00  0.0000000000e+00 -7.2556521956e+01  7.2556521956e+01  0.0000000000e+00 0. 9.
        6     2     1     2   103     0  1.1801439475e+02  4.1381139015e+01  1.1241865353e+02  2.3921051283e+02  1.7012912670e+02  8.393032e-14 9.
       -6     2     1     2     0   102 -1.1801439475e+02 -4.1381139015e+01  1.2100448167e+03  1.2283660014e+03  1.7039594691e+02  3.099343e-13 9.
       24     2     3     0     0     0  1.2894802161e+00  2.1198585103e+00  7.6974579471e+01  1.1097059625e+02  7.9895123678e+01  2.854108e-13 9.
        5     1     3     0   103     0  1.1672491453e+02  3.9261280505e+01  3.5444074061e+01  1.2823991658e+02  4.8000000000e+00 0. 9.
      -24     2     4     0     0     0 -1.3974422381e+02 -1.8526178317e+00  1.0328465862e+03  1.0454536115e+03  8.1665799911e+01  1.216504e-13 9.
       -5     1     4     0     0   102  2.1729829063e+01 -3.9528521184e+01  1.7719823059e+02  1.8291238991e+02  4.8000000000e+00 0. 9.
      -15     1     5     0     0     0  3.9608583189e+01 -6.4763361625e+00  4.5042377401e+01  6.0355245369e+01  1.7768200000e+00  8.071151e-02 9.
       16     1     5     0     0     0 -3.8319102973e+01  8.5961946727e+00  3.1932202070e+01  5.0615350878e+01  0.0000000000e+00 0. 9.
        1     1     7     0   104     0 -1.5784578435e+01  1.1828446187e+01  3.9712775647e+02  3.9761744041e+02  3.3000000000e-01 0. 9.
       -2     1     7     0     0   104 -1.2395964538e+02 -1.3681064019e+01  6.3571882968e+02  6.4783617104e+02  3.3000000000e-01 0. 9.
#pdf   21   21  2.146185e-01  1.116254e-02  2.111486e+02  2.291314e-01  7.457025e+00
</event>
<event>
    12  9999  1.000000e+00  1.879512e+02  7.882131e-03  1.065386e-01
       21    -1     0     0   101   102  0.0000000000e+00  0.0000000000e+00  3.2858656084e+02  3.2858656084e+02  0.0000000000e+00 0. 9.
       21    -1     0     0   102   103  0.0000000000e+00  0.0000000000e+00 -1.5162268951e+02  1.5162268951e+02  0.0000000000e+00 0. 9.
        6     2     1     2   101     0 -6.4792323472e+01 -5.4646179723e+01  2.1934913719e+02  2.9176984078e+02  1.7271753201e+02  8.570168e-14 9.
       -6     2     1     2     0   103  6.4792323472e+01  5.4646179723e+01 -4.2385265862e+01  1.8843940958e+02  1.6287618052e+02  1.680738e-13 9.
       24     2     3     0     0     0  2.7311363740e+01 -2.4604507900e+00  1.0324560581e+02  1.3457725348e+02  8.1849970239e+01  2.664512e-15 9.
        5     1     3     0   101     0 -9.2103687212e+01 -5.2185728933e+01  1.1610353138e+02  1.5719258730e+02  4.8000000000e+00 0. 9.
      -24     2     4     0     0     0  5.9122426435e+01  9.6030139912e+01 -4.7404841565e+01  1.4609538953e+02  7.9871113423e+01  3.405189e-13 9.
       -5     1     4     0     0   103  5.6698970371e+00 -4.1383960190e+01  5.0195757033e+00  4.2344020046e+01  4.8000000000e+00 0. 9.
       -3     1     5     0     0   104  1.4854404602e+01  3.4708772732e+00 -1.1427951720e+01  1.9066945368e+01  5.0000000000e-01 0. 9.
        4     1     5     0   104     0  1.2456959138e+01 -5.9313280632e+00  1.1467355753e+02  1.1551030812e+02  1.5000000000e+00 0. 9.
       13     1     7     0     0     0 -1.0388559948e+01  5.6440719090e+01 -1.2069593499e+01  5.8644379104e+01  1.0566000000e-01  1.362618e+06 9.
      -14     1     7     0     0     0  6.9510986382e+01  3.9589420822e+01 -3.5335248066e+01  8.7451010427e+01  0.0000000000e+00 0. 9.
#pdf   21   21  5.055178e-02  2.332657e-02  1.836107e+02  1.888286e+00  4.035687e+00
</event>
<event>
    12  9999  1.000000e+00  1.873531e+02  7.881844e-03  1.065801e-01
       21    -1     0     0   101   102  0.0000000000e+00  0.0000000000e+00  1.4136869841e+01  1.4136869841e+01  0.0000000000e+00 0. 9.
       21    -1     0     0   102   103  0.0000000000e+00  0.0000000000e+00 -2.5559127282e+03  2.5559127282e+03  0.0000000000e+00 0. 9.
        6     2     1     2   101     0 -4.4804082877e+01  6.2895209454e+01 -1.0481883615e+03  1.0646497430e+03  1.6975576839e+02  9.866686e-14 9.
       -6     2     1     2     0   103  4.4804082877e+01 -6.2895209454e+01 -1.4935874968e+03  1.5053998550e+03  1.7164468978e+02  2.564564e-14 9.
       24     2     3     0     0     0 -6.6807407197e+01 -9.5742780534e+00 -7.3362657589e+02  7.4106338690e+02  8.0075552363e+01  1.076184e-13 9.
        5     1     3     0   101     0  2.2003324320e+01  7.2469487507e+01 -3.1456178560e+02  3.2358635611e+02  4.8000000000e+00 0. 9.
      -24     2     4     0     0     0  5.0006821122e+01 -8.0758234351e+00 -4.8621705079e+02  4.9651408885e+02  8.6909831846e+01  4.156905e-15 9.
       -5     1     4     0     0   103 -5.2027382445e+00 -5.4819386019e+01 -1.0073704460e+03  1.0088857661e+03  4.8000000000e+00 0. 9.
      -15     1     5     0     0     0 -2.8221111111e+01 -3.0754808041e+00 -6.2425747621e+02  6.2490514751e+02  1.7768200000e+00  9.263890e-02 9.
       16     1     5     0     0     0 -3.8586296087e+01 -6.4987972493e+00 -1.0936909968e+02  1.1615823938e+02  0.0000000000e+00 0. 9.
        1     1     7     0   104     0  2.3691929371e+00 -3.9186954604e+01 -2.7414811155e+02  2.7694498814e+02  3.3000000000e-01 0. 9.
       -2     1     7     0     0   104  4.7637628185e+01  3.1111131169e+01 -2.1206893924e+02  2.1956910072e+02  3.3000000000e-01 0. 9.
#pdf   21   21  2.174903e-03  3.932173e-01  1.864946e+02  2.329656e+01  3.812330e-02
</event>
<event>
    12  9999  1.000000e+00  2.105494e+02  7.892372e-03  1.050797e-01
       21    -1     0     0   101   102  0.0000000000e+00  0.0000000000e+00  1.0324218059e+03  1.0324218059e+03  0.0000000000e+00 0. 9.
       21    -1     0     0   102   103  0.0000000000e+00  0.0000000000e+00 -1.4521528316e+02  1.4521528316e+02  0.0000000000e+00 0. 9.
        6     2     1     2   101     0  3.7737125248e+01  1.2188557148e+02  9.3977194699e+02  9.6380224336e+02  1.7164867838e+02  5.801562e-14 9.
       -6     2     1     2     0   103 -3.7737125248e+01 -1.2188557148e+02 -5.2565424206e+01  2.1383484575e+02  1.6334636292e+02  2.580698e-14 9.
       24     2     3     0     0     0  9.2865892021e+00 -7.1438750442e+00  2.2808395937e+02  2.3993701916e+02  7.3554095421e+01  1.160447e-13 9.
        5     1     3     0   101     0  2.8450536046e+01  1.2902944653e+02  7.1168798762e+02  7.2386522419e+02  4.8000000000e+00 0. 9.
      -24     2     4     0     0     0 -9.0863852228e+00 -1.1772843764e+01 -5.7089691327e+01  9.9864732556e+01  8.0576483580e+01  1.932309e-13 9.
       -5     1     4     0     0   103 -2.8650740025e+01 -1.1011272772e+02  4.5242671205e+00  1.1397011320e+02  4.8000000000e+00 0. 9.
       -1     1     5     0     0   104  3.8742633387e+01  7.1049995897e+00  1.5381694295e+02  1.5878045691e+02  3.3000000000e-01 0. 9.
        2     1     5     0   104     0 -2.9456044185e+01 -1.4248874634e+01  7.4267016425e+01  8.1156562249e+01  3.3000000000e-01 0. 9.
        3     1     7     0   105     0 -2.0967871432e+01 -3.9351120373e+01 -5.3404636478e+01  6.9573468394e+01  5.0000000000e-01 0. 9.
       -4     1     7     0     0   105  1.1881486209e+01  2.7578276610e+01 -3.6850548489e+00  3.0291264162e+01  1.5000000000e+00 0. 9.
#pdf   21   21  1.588341e-01  2.234081e-02  2.072733e+02  4.034488e-01  4.181929e+00
</event>
<event>
    12  9999  1.000000e+00  1.758053e+02  7.876117e-03  1.074163e-01
       21    -1     0     0   101   102  0.0000000000e+00  0.0000000000e+00  2.0948577195e+01  2.0948577195e+01  0.0000000000e+00 0. 9.
       21    -1     0     0   103   101  0.0000000000e+00  0.0000000000e+00 -1.6292676504e+03  1.6292676504e+03  0.0000000000e+00 0. 9.
        6     2     1     2   103     0 -2.3755175400e-01 -3.4146836803e+01 -1.0373226221e+03  1.0513508418e+03  1.6773284529e+02  1.583015e-13 9.
       -6     2     1     2     0   102  2.3755175400e-01  3.4146836803e+01 -5.7099645114e+02  5.9886538580e+02  1.7730408965e+02  1.707021e-13 9.
       24     2     3     0     0     0  5.2973980299e+01 -4.7702277181e+01 -5.1904762018e+02  5.3015295741e+02  8.1055390897e+01  8.073467e-14 9.
        5     1     3     0   103     0 -5.3211532053e+01  1.3555440378e+01 -5.1827500193e+02  5.2119788443e+02  4.8000000000e+00 0. 9.
      -24     2     4     0     0     0 -4.8126628122e+01  5.5524519091e+01 -4.8829568533e+02  5.0058743374e+02  8.2194634616e+01  5.024942e-14 9.
       -5     1     4     0     0   102  4.8364179876e+01 -2.1377682288e+01 -8.2700765811e+01  9.8277952058e+01  4.8000000000e+00 0. 9.
       -3     1     5     0     0   104 -9.7882520731e+00 -3.5054437283e+01 -1.0382057295e+02  1.1001629343e+02  5.0000000000e-01 0. 9.
        4     1     5     0   104     0  6.2762232372e+01 -1.2647839898e+01 -4.1522704723e+02  4.2013666398e+02  1.5000000000e+00 0. 9.
        1     1     7     0   105     0  2.0796614482e+00  3.5654704226e+01 -6.7738171214e+01  7.6577749148e+01  3.3000000000e-01 0. 9.
       -2     1     7     0     0   105 -5.0206289571e+01  1.9869814866e+01 -4.2055751411e+02  4.2400968460e+02  3.3000000000e-01 0. 9.
#pdf   21   21  3.222858e-03  2.506566e-01  1.711735e+02  1.798220e+01  1.693813e-01
</event>
<event>
    12  9999  1.000000e+00  2.283843e+02  7.899723e-03  1.040596e-01
       21    -1     0     0   101   102  0.0000000000e+00  0.0000000000e+00  3.1442508153e+02  3.1442508153e+02  0.0000000000e+00 0. 9.
       21    -1     0     0   102   103  0.0000000000e+00  0.0000000000e+00 -2.2574320691e+02  2.2574320691e+02  0.0000000000e+00 0. 9.
        6     2     1     2   101     0  5.2269866688e+01 -1.4164391141e+02  1.8345460720e+02  2.9316790660e+02  1.7174601000e+02  3.231478e-13 9.
       -6     2     1     2     0   103 -5.2269866688e+01  1.4164391141e+02 -9.4772732589e+01  2.4700038184e+02  1.7097421205e+02  2.328508e-13 9.
       24     2     3     0     0     0 -3.5370194222e+01 -7.3774549643e+01  7.1793424462e+01  1.3575669266e+02  8.1128595398e+01  9.827850e-14 9.
        5     1     3     0   101     0  8.7640060910e+01 -6.7869361768e+01  1.1166118274e+02  1.5741121394e+02  4.8000000000e+00 0. 9.
      -24     2     4     0     0     0 -8.6546683950e+01  7.9192710370e+01 -2.1958728307e+01  1.4502012918e+02  8.2382268973e+01  7.734301e-14 9.
       -5     1     4     0     0   103  3.4276817262e+01  6.2451201040e+01 -7.2814004282e+01  1.0198025266e+02  4.8000000000e+00 0. 9.
       -3     1     5     0     0   104  5.5910140323e+00 -8.5411110422e+00 -1.5979287412e+01  1.8968332609e+01  5.0000000000e-01 0. 9.
        4     1     5     0   104     0 -4.0961208254e+01 -6.5233438600e+01  8.7772711874e+01  1.1678836005e+02  1.5000000000e+00 0. 9.
       11     1     7     0     0     0 -2.8043550764e+01  6.0260831306e+01  2.1347548849e+01  6.9810646547e+01  5.1100000000e-04 0. 9.
      -12     1     7     0     0     0 -5.8503133186e+01  1.8931879064e+01 -4.3306277156e+01  7.5209482637e+01  0.0000000000e+00 0. 9.
#pdf   21   21  4.837309e-02  3.472972e-02  2.280950e+02  1.953773e+00  2.753948e+00
</event>
<event>
    12  9999  1.000000e+00  1.785741e+02  7.877523e-03  1.072097e-01
       21    -1     0     0   101   102  0.0000000000e+00  0.0000000000e+00  1.3895249849e+03  1.3895249849e+03  0.0000000000e+00 0. 9.
       21    -1     0     0   103   101  0.0000000000e+00  0.0000000000e+00 -3.1588967887e+01  3.1588967887e+01  0.0000000000e+00 0. 9.
        6     2     1     2   103     0 -4.4039430753e+01  4.2605453400e+01  3.1801416986e+02  3.6659346176e+02  1.7176454189e+02  5.789398e-14 9.
       -6     2     1     2     0   102  4.4039430753e+01 -4.2605453400e+01  1.0399218471e+03  1.0545204910e+03  1.6377216398e+02  2.529413e-14 9.
       24     2     3     0     0     0 -8.7954096207e+01  5.6530178462e+01  2.6903359165e+02  2.9918031132e+02  7.8728655077e+01  4.118859e-14 9.
        5     1     3     0   103     0  4.3914665453e+01 -1.3924725062e+01  4.8980578212e+01  6.7413150437e+01  4.8000000000e+00 0. 9.
      -24     2     4     0     0     0  8.7344879553e+01 -3.1889810381e+01  6.0355888848e+02  6.1585677176e+02  7.9687787457e+01  5.830379e-14 9.
       -5     1     4     0     0   102 -4.3305448800e+01 -1.0715643019e+01  4.3636295866e+02  4.3866371926e+02  4.8000000000e+00 0. 9.
       -1     1     5     0     0   104 -5.0930909813e+01  2.9412372937e+01  2.3445190182e+02  2.4171646287e+02  3.3000000000e-01 0. 9.
        2     1     5     0   104     0 -3.7023186393e+01  2.7117805526e+01  3.4581689830e+01  5.7463848451e+01  3.3000000000e-01 0. 9.
        3     1     7     0   105     0  4.1667574638e+01 -3.6228577180e+01  4.9401631380e+02  4.9709261198e+02  5.0000000000e-01 0. 9.
       -2     1     7     0     0   105  4.5677304916e+01  4.3387667991e+00  1.0954257468e+02  1.1876415978e+02  3.3000000000e-01 0. 9.
#pdf   21   21  2.137731e-01  4.859841e-03  1.748600e+02  2.391882e-01  1.366034e+01
</event>
<event>
    12  9999  1.000000e+00  2.213757e+02  7.896904e-03  1.044483e-01
       21    -1     0     0   101   102  0.0000000000e+00  0.0000000000e+00  5.6942896908e+02  5.6942896908e+02  0.0000000000e+00 0. 9.
       21    -1     0     0   102   103  0.0000000000e+00  0.0000000000e+00 -2.6017223733e+02  2.6017223733e+02  0.0000000000e+00 0. 9.
        6     2     1     2   101     0 -1.2233909524e+02 -6.9759256767e+01  4.9398332040e+02  5.4136838202e+02  1.7095904797e+02  1.408017e-13 9.
       -6     2     1     2     0   103  1.2233909524e+02  6.9759256767e+01 -1.8472658865e+02  2.8823282440e+02  1.7064888038e+02  3.197285e-13 9.
       24     2     3     0     0     0 -5.8889216797e+01 -2.6323803767e+01  1.2899842153e+02  1.6834084676e+02  8.6816849929e+01  3.916401e-14 9.
        5     1     3     0   101     0 -6.3449878441e+01 -4.3435453000e+01  3.6498489888e+02  3.7302753526e+02  4.8000000000e+00 0. 9.
      -24     2     4     0     0     0  8.0120796362e+01  7.1215721435e+01 -7.1008508227e+01  1.6682710845e+02  1.0629230867e+02  2.034296e-14 9.
       -5     1     4     0     0   103  4.2218298876e+01 -1.4564646680e+00 -1.1371808043e+02  1.2140571595e+02  4.8000000000e+00 0. 9.
      -11     1     5     0     0     0 -7.0563695865e+01  7.6391577671e+00  9.7320517112e+01  1.2045279140e+02  5.1100000000e-04 0. 9.
       12     1     5     0     0     0  1.1674479069e+01 -3.3962961534e+01  3.1677904415e+01  4.7888055357e+01  0.0000000000e+00 0. 9.
        3     1     7     0   104     0  1.4188290139e+01  5.0356772136e+01 -8.1518069271e+01  9.6863603560e+01  5.0000000000e-01 0. 9.
       -4     1     7     0     0   104  6.5932506223e+01  2.0858949299e+01  1.0509561044e+01  6.9963504887e+01  1.5000000000e+00 0. 9.
#pdf   21   21  8.760446e-02  4.002650e-02  2.212561e+02  9.664955e-01  2.390324e+00
</event>
<event>
    12  9999  1.000000e+00  2.520274e+02  7.908647e-03  1.028503e-01
        3    -1     0     0   101     0  0.0000000000e+00  0.0000000000e+00  2.0572115678e+03  2.0572115678e+03  0.0000000000e+00 0. 9.
       -3    -1     0     0     0   102  0.0000000000e+00  0.0000000000e+00 -7.5632243938e+01  7.5632243938e+01  0.0000000000e+00 0. 9.
        6     2     1     2   101     0 -6.9519911411e+00  1.8472183011e+02  1.6971674654e+02  3.0347537537e+02  1.7065475294e+02  1.439426e-13 9.
       -6     2     1     2     0   102  6.9519911411e+00 -1.8472183011e+02  1.8118625773e+03  1.8293684364e+03  1.7196625301e+02  8.718624e-13 9.
       24     2     3     0     0     0  8.7060414172e+00  6.6459310139e+01  1.1643864284e+01  1.0538127219e+02  8.0479798029e+01  1.598865e-14 9.
        5     1     3     0   101     0 -1.5658032558e+01  1.1826251997e+02  1.5807288225e+02  1.9809410318e+02  4.8000000000e+00 0. 9.
      -24     2     4     0     0     0 -3.9042548172e+01 -1.2446205151e+02  1.5291811926e+03  1.5366594617e+03  7.6889912808e+01  2.164236e-14 9.
       -5     1     4     0     0   102  4.5994539313e+01 -6.0259778599e+01  2.8268138471e+02  2.9270897462e+02  4.8000000000e+00 0. 9.
       -3     1     5     0     0   103 -9.3524742729e+00  2.8402056266e+01 -3.2622682061e+01  4.4256468002e+01  5.0000000000e-01 0. 9.
        4     1     5     0   103     0  1.8058515690e+01  3.8057253873e+01  4.4266546345e+01  6.1124804184e+01  1.5000000000e+00 0. 9.
        1     1     7     0   104     0 -2.9470713979e+01 -5.1141635553e+00  4.1072918443e+02  4.1181700972e+02  3.3000000000e-01 0. 9.
       -2     1     7     0     0   104 -9.5718341937e+00 -1.1934788795e+02  1.1184520082e+03  1.1248424520e+03  3.3000000000e-01 0. 9.
#pdf    3   -3  3.164941e-01  1.163573e-02  2.515821e+02  5.676232e-03  3.356406e-01
</event>
<event>
    12  9999  1.000000e+00  1.796158e+02  7.878047e-03  1.071330e-01
       21    -1     0     0   101   102  0.0000000000e+00  0.0000000000e+00  7.2706305684e+01  7.2706305684e+01  0.0000000000e+00 0. 9.
       21    -1     0     0   102   103  0.0000000000e+00  0.0000000000e+00 -5.7426749446e+02  5.7426749446e+02  0.0000000000e+00 0. 9.
        6     2     1     2   101     0 -4.5776020506e+00  5.3484030541e+01 -9.6101084294e+01  2.0334093903e+02  1.7096965555e+02  5.895419e-15 9.
       -6     2     1     2     0   103  4.5776020506e+00 -5.3484030541e+01 -4.0546010448e+02  4.4363286111e+02  1.7184505571e+02  9.315762e-14 9.
       24     2     3     0     0     0 -3.3809881965e+00 -3.5101618771e+01 -5.7983482749e+01  1.0677572430e+02  8.2434315097e+01  7.499662e-14 9.
        5     1     3     0   101     0 -1.1966138542e+00  8.8585649312e+01 -3.8117601545e+01  9.6565214732e+01  4.8000000000e+00 0. 9.
      -24     2     4     0     0     0 -1.4047516021e+00  6.5564802313e+00 -8.3175857957e+01  1.1571392747e+02  8.0165634174e+01  1.725058e-13 9.
       -5     1     4     0     0   103  5.9823536527e+00 -6.0040510772e+01 -3.2228424652e+02  3.2791893365e+02  4.8000000000e+00 0. 9.
      -11     1     5     0     0     0 -1.9852451918e+01 -3.6384326448e+01 -7.3325659634e+01  8.4229397595e+01  5.1100000000e-04 0. 9.
       12     1     5     0     0     0  1.6471463722e+01  1.2827076771e+00  1.5342176885e+01  2.2546326700e+01  0.0000000000e+00 0. 9.
        3     1     7     0   104     0 -1.1633393332e+01 -3.5308077232e+01 -4.1982247994e+01  5.6078117879e+01  5.0000000000e-01 0. 9.
       -4     1     7     0     0   104  1.0228641730e+01  4.1864557463e+01 -4.1193609963e+01  5.9635809586e+01  1.5000000000e+00 0. 9.
#pdf   21   21  1.118559e-02  8.834885e-02  1.791985e+02  7.436179e+00  9.754086e-01
</event>
<event>
    12  9999  1.000000e+00  1.720945e+02  7.874199e-03  1.076997e-01
        5    -1     0     0   101     0  0.0000000000e+00  0.0000000000e+00  6.5158132638e+01  6.5158132638e+01  0.0000000000e+00 0. 9.
       -5    -1     0     0     0   102  0.0000000000e+00  0.0000000000e+00 -4.5979450241e+02  4.5979450241e+02  0.0000000000e+00 0. 9.
        6     2     1     2   101     0  3.2245032901e+00 -1.6213319702e+01 -2.2526489987e+02  2.8340987358e+02  1.7118297863e+02  2.378568e-13 9.
       -6     2     1     2     0   102 -3.2245032901e+00  1.6213319702e+01 -1.6937146990e+02  2.4154276147e+02  1.7141453160e+02  2.695295e-13 9.
       24     2     3     0     0     0  2.2814818335e+01  5.3839018098e+01 -1.1616244886e+02  1.5219441988e+02  7.9058656141e+01  9.974351e-14 9.
        5     1     3     0   101     0 -1.9590315044e+01 -7.0052337800e+01 -1.0910245101e+02  1.3121545370e+02  4.8000000000e+00 0. 9.
      -24     2     4     0     0     0  4.7864348685e+01  1.9397240087e+01 -4.4967425097e+01  1.0693364399e+02  8.2130908301e+01  5.985606e-14 9.
       -5     1     4     0     0   102 -5.1088851975e+01 -3.1839203847e+00 -1.2440404480e+02  1.3460911748e+02  4.8000000000e+00 0. 9.
      -11     1     5     0     0     0  1.7627158201e+01  1.8215019181e+01 -1.1327798700e+02  1.1607930896e+02  5.1100000000e-04 0. 9.
       12     1     5     0     0     0  5.1876601337e+00  3.5623998916e+01 -2.8844618659e+00  3.6115110919e+01  0.0000000000e+00 0. 9.
       13     1     7     0     0     0 -1.2147644860e+01  1.9959452931e+01  1.0126093189e+01  2.5465544649e+01  1.0566000000e-01  3.807851e+05 9.
      -14     1     7     0     0     0  6.0011993544e+01 -5.6221284411e-01 -5.5093518286e+01  8.1468099337e+01  0.0000000000e+00 0. 9.
#pdf    5   -5  1.002433e-02  7.073762e-02  1.719793e+02  2.268720e-01  3.459443e-02
</event>
<event>
    12  9999  1.000000e+00  2.612736e+02  7.911916e-03  1.024151e-01
        3    -1     0     0   101     0  0.0000000000e+00  0.0000000000e+00  2.1436768388e+03  2.1436768388e+03  0.0000000000e+00 0. 9.
       -3    -1     0     0     0   102  0.0000000000e+00  0.0000000000e+00 -3.2430984500e+01  3.2430984500e+01  0.0000000000e+00 0. 9.
        6     2     1     2   101     0  1.9720329490e+02  1.1149796091e+01  9.0740703180e+02  9.4414170792e+02  1.7030145570e+02  8.677322e-14 9.
       -6     2     1     2     0   102 -1.9720329490e+02 -1.1149796091e+01  1.2038388225e+03  1.2319661154e+03  1.7175314088e+02  1.848004e-13 9.
       24     2     3     0     0     0  2.1013623686e+02  3.8245749576e+01  7.6106395073e+02  7.9467335322e+02  8.1654306716e+01  1.684356e-14 9.
        5     1     3     0   101     0 -1.2932941965e+01 -2.7095953484e+01  1.4634308106e+02  1.4946835471e+02  4.8000000000e+00 0. 9.
      -24     2     4     0     0     0 -3.6598990688e+01  1.6085779372e+00  6.2014720359e+02  6.2642877993e+02  8.0550534178e+01  2.150523e-14 9.
       -5     1     4     0     0   102 -1.6060430421e+02 -1.2758374029e+01  5.8369161895e+02  6.0553733548e+02  4.8000000000e+00 0. 9.
       -3     1     5     0     0   103  4.0229428691e+01  4.2536566066e+01  1.8277304327e+02  1.9192186361e+02  5.0000000000e-01 0. 9.
        4     1     5     0   103     0  1.6990680817e+02 -4.2908164910e+00  5.7829090747e+02  6.0275148961e+02  1.5000000000e+00 0. 9.
       11     1     7     0     0     0 -8.8512649614e+00  9.5249929217e+00  1.2304920267e+01  1.7901995548e+01  5.1100000000e-04 0. 9.
      -12     1     7     0     0     0 -2.7747725726e+01 -7.9164149845e+00  6.0784228333e+02  6.0852678438e+02  0.0000000000e+00 0. 9.
#pdf    3   -3  3.297964e-01  4.989382e-03  2.607989e+02  5.021472e-03  5.814686e-01
</event>
<event>
    12  9999  1.000000e+00  2.439186e+02  7.905682e-03  1.032486e-01
       21    -1     0     0   101   102  0.0000000000e+00  0.0000000000e+00  1.6146878676e+02  1.6146878676e+02  0.0000000000e+00 0. 9.
       21    -1     0     0   103   101  0.0000000000e+00  0.0000000000e+00 -3.7246042287e+02  3.7246042287e+02  0.0000000000e+00 0. 9.
        6     2     1     2   103     0 -1.2948064898e+02 -1.1610440174e+02 -1.3306720692e+02  2.7772560123e+02  1.7081907814e+02  1.984719e-13 9.
       -6     2     1     2     0   102  1.2948064898e+02  1.1610440174e+02 -7.7924429194e+01  2.5620360841e+02  1.7123843532e+02  6.546588e-14 9.
       24     2     3     0     0     0 -1.5809005420e+02 -9.9562301631e+01 -9.1208392304e+01  2.2417805690e+02  8.3855311266e+01  7.075390e-16 9.
        5     1     3     0   103     0  2.8609405217e+01 -1.6542100113e+01 -4.1858814612e+01  5.3547544330e+01  4.8000000000e+00 0. 9.
      -24     2     4     0     0     0  1.0033998623e+02  1.4430252280e+02 -3.4057196267e+01  1.9627292861e+02  8.0447740571e+01  6.216199e-14 9.
       -5     1     4     0     0   102  2.9140662748e+01 -2.8198121058e+01 -4.3867232927e+01  5.9930679800e+01  4.8000000000e+00 0. 9.
       -1     1     5     0     0   104  7.5802394041e+00  3.7209302678e+00 -9.0040277164e+00  1.2348553219e+01  3.3000000000e-01 0. 9.
        2     1     5     0   104     0 -1.6567029360e+02 -1.0328323190e+02 -8.2204364587e+01  2.1182950368e+02  3.3000000000e-01 0. 9.
       11     1     7     0     0     0  4.7319339861e+01  1.6535674670e+01  9.9639757482e+00  5.1106059080e+01  5.1100000000e-04 0. 9.
      -12     1     7     0     0     0  5.3020646368e+01  1.2776684813e+02 -4.4021172015e+01  1.4516686953e+02  0.0000000000e+00 0. 9.
#pdf   21   21  2.484135e-02  5.730160e-02  2.437717e+02  3.781473e+00  1.611008e+00
</event>
<event>
    12  9999  1.000000e+00  2.360691e+02  7.902719e-03  1.036501e-01
       21    -1     0     0   101   102  0.0000000000e+00  0.0000000000e+00  3.1091864539e+02  3.1091864539e+02  0.0000000000e+00 0. 9.
       21    -1     0     0   103   101  0.0000000000e+00  0.0000000000e+00 -1.9767340784e+02  1.9767340784e+02  0.0000000000e+00 0. 9.
        6     2     1     2   103     0  1.4630650783e+02  6.5899576633e+01 -2.0936340945e+01  2.3744196704e+02  1.7375847866e+02  1.425623e-13 9.
       -6     2     1     2     0   102 -1.4630650783e+02 -6.5899576633e+01  1.3418157849e+02  2.7115008620e+02  1.7253789382e+02  1.422993e-13 9.
       24     2     3     0     0     0  1.0085516768e+01  5.1752735852e+01  5.9434857273e+00  9.7792919094e+01  8.2146617007e+01  4.232667e-14 9.
        5     1     3     0   103     0  1.3622099106e+02  1.4146840781e+01 -2.6879826672e+01  1.3964904795e+02  4.8000000000e+00 0. 9.
      -24     2     4     0     0     0 -8.3377320104e+01  2.9761593543e+01  5.2497256593e+01  1.3041448092e+02  8.0090229908e+01  1.584691e-14 9.
       -5     1     4     0     0   102 -6.2929187727e+01 -9.5661170176e+01  8.1684321899e+01  1.4073560527e+02  4.8000000000e+00 0. 9.
       -3     1     5     0     0   104  9.6601130346e+00  7.2289100417e+01 -7.3142188796e+00  7.3299247068e+01  5.0000000000e-01 0. 9.
        4     1     5     0   104     0  4.2540373382e-01 -2.0536364565e+01  1.3257704607e+01  2.4493672026e+01  1.5000000000e+00 0. 9.
        1     1     7     0   105     0 -1.3507307273e+01 -2.5188657464e+00 -2.0272826525e+01  2.4492619903e+01  3.3000000000e-01 0. 9.
       -2     1     7     0     0   105 -6.9870012830e+01  3.2280459289e+01  7.2770083118e+01  1.0592186102e+02  3.3000000000e-01 0. 9.
#pdf   21   21  4.783364e-02  3.041129e-02  2.356219e+02  1.973595e+00  3.130604e+00
</event>
<event>
    12  9999  1.000000e+00  1.796828e+02  7.878080e-03  1.071280e-01
       21    -1     0     0   101   102  0.0000000000e+00  0.0000000000e+00  4.3750571720e+02  4.3750571720e+02  0.0000000000e+00 0. 9.
       21    -1     0     0   102   103  0.0000000000e+00  0.0000000000e+00 -9.0272664545e+01  9.0272664545e+01  0.0000000000e+00 0. 9.
        6     2     1     2   101     0 -5.4182111901e+01 -5.0350890381e+00  2.8650650430e+02  3.3828891020e+02  1.7144199132e+02  7.917430e-14 9.
       -6     2     1     2     0   103  5.4182111901e+01  5.0350890381e+00  6.0726548356e+01  1.8948947155e+02  1.7104821770e+02  9.771750e-14 9.
       24     2     3     0     0     0 -3.3257258288e+01 -3.9693084403e+01  7.1350539730e+01  1.1930453808e+02  8.0380887712e+01  1.111786e-13 9.
        5     1     3     0   101     0 -2.0924853613e+01  3.4657995365e+01  2.1515596457e+02  2.1898437212e+02  4.8000000000e+00 0. 9.
      -24     2     4     0     0     0  9.8751145952e+01 -1.3037494314e+01  2.6867705649e+01  1.3047694495e+02  7.9878623379e+01  4.840589e-14 9.
       -5     1     4     0     0   103 -4.4569034051e+01  1.8072583352e+01  3.3858842708e+01  5.9012526592e+01  4.8000000000e+00 0. 9.
       -1     1     5     0     0   104  9.2936058050e+00 -5.0775575152e+01  3.7154241155e+01  6.3600917263e+01  3.3000000000e-01 0. 9.
        2     1     5     0   104     0 -4.2550864094e+01  1.1082490750e+01  3.4196298574e+01  5.5703620820e+01  3.3000000000e-01 0. 9.
        1     1     7     0   105     0 -6.2906925042e+00 -7.7269026402e+00 -1.4383083243e+01  1.7500280574e+01  3.3000000000e-01 0. 9.
       -2     1     7     0     0   105  1.0504183846e+02 -5.3105916739e+00  4.1250788892e+01  1.1297666438e+02  3.3000000000e-01 0. 9.
#pdf   21   21  6.730857e-02  1.388810e-02  1.794953e+02  1.366879e+00  6.265715e+00
</event>
<event>
    12  9999  1.000000e+00  2.022263e+02  7.888731e-03  1.055933e-01
       21    -1     0     0   101   102  0.0000000000e+00  0.0000000000e+00  2.8111169336e+01  2.8111169336e+01  0.0000000000e+00 0. 9.
       21    -1     0     0   103   101  0.0000000000e+00  0.0000000000e+00 -2.0074852069e+03  2.0074852069e+03  0.0000000000e+00 0. 9.
        6     2     1     2   103     0 -1.0508737182e+02  1.3354959780e+01 -1.5234396007e+03  1.5367919724e+03  1.7216166483e+02  1.010925e-13 9.
       -6     2     1     2     0   102  1.0508737182e+02 -1.3354959780e+01 -4.5593443686e+02  4.9880440382e+02  1.7235983258e+02  4.122284e-13 9.
       24     2     3     0     0     0 -6.8306897232e+01  2.9111121376e+01 -4.8202031320e+02  4.9459322347e+02  8.2253174787e+01  1.904421e-14 9.
        5     1     3     0   103     0 -3.6780474586e+01 -1.5756161596e+01 -1.0414192875e+03  1.0421987490e+03  4.8000000000e+00 0. 9.
      -24     2     4     0     0     0  1.0079426141e+02 -6.0731262990e+01 -2.8110443561e+02  3.1755453695e+02  8.9293957123e+01  6.166890e-14 9.
       -5     1     4     0     0   102  4.2931104066e+00  4.7376303210e+01 -1.7483000125e+02  1.8124986687e+02  4.8000000000e+00 0. 9.
      -13     1     5     0     0     0 -6.0565334979e+01 -6.2513031771e+00 -4.0426209594e+02  4.0882158942e+02  1.0566000000e-01  4.747225e+05 9.
       14     1     5     0     0     0 -7.7415622530e+00  3.5362424553e+01 -7.7758217258e+01  8.5771634050e+01  0.0000000000e+00 0. 9.
        3     1     7     0   104     0  2.4564195414e+01  2.2870667783e+01 -8.0923715565e+01  8.7609159807e+01  5.0000000000e-01 0. 9.
       -4     1     7     0     0   104  7.6230065998e+01 -8.3601930772e+01 -2.0018072004e+02  2.2994537714e+02  1.5000000000e+00 0. 9.
#pdf   21   21  4.324795e-03  3.088439e-01  2.021419e+02  1.489565e+01  9.259841e-02
</event>
<event>
    12  9999  1.000000e+00  1.924273e+02  7.884252e-03  1.062328e-01
       21    -1     0     0   101   102  0.0000000000e+00  0.0000000000e+00  4.7335352467e+02  4.7335352467e+02  0.0000000000e+00 0. 9.
       21    -1     0     0   102   103  0.0000000000e+00  0.0000000000e+00 -9.6967362932e+01  9.6967362932e+01  0.0000000000e+00 0. 9.
        6     2     1     2   101     0 -3.5079583224e-01 -8.6898702214e+01  3.1440227983e+02  3.6918131267e+02  1.7290037754e+02  3.079869e-13 9.
       -6     2     1     2     0   103  3.5079583224e-01  8.6898702214e+01  6.1983881901e+01  2.0113957493e+02  1.7048055456e+02  6.816142e-14 9.
       24     2     3     0     0     0  1.8718811371e+01 -4.5165751811e+01  6.3679339019e+01  1.1424931758e+02  8.1286587541e+01  4.833190e-14 9.
        5     1     3     0   101     0 -1.9069607203e+01 -4.1732950403e+01  2.5072294082e+02  2.5493199509e+02  4.8000000000e+00 0. 9.
      -24     2     4     0     0     0 -3.4869336902e+01  2.1423350481e+01 -1.9530716299e+01  9.0707925690e+01  7.8559838989e+01  3.254070e-14 9.
       -5     1     4     0     0   103  3.5220132734e+01  6.5475351733e+01  8.1514598200e+01  1.1043164924e+02  4.8000000000e+00 0. 9.
       -3     1     5     0     0   104 -2.4204268343e+01 -3.8417196579e+01  5.2391891718e+01  6.9331723740e+01  5.0000000000e-01 0. 9.
        4     1     5     0   104     0  4.2923079714e+01 -6.7485552324e+00  1.1287447300e+01  4.4917593840e+01  1.5000000000e+00 0. 9.
       13     1     7     0     0     0 -4.9439901992e+01  3.3458451316e+01 -3.2323756957e+01  6.7886731408e+01  1.0566000000e-01  4.379503e+05 9.
      -14     1     7     0     0     0  1.4570565090e+01 -1.2035100835e+01  1.2793040658e+01  2.2821194282e+01  0.0000000000e+00 0. 9.
#pdf   21   21  7.282362e-02  1.491806e-02  1.913508e+02  1.237043e+00  5.911145e+00
</event>
<event>
    12  9999  1.000000e+00  2.088569e+02  7.891644e-03  1.051821e-01
       21    -1     0     0   101   102  0.0000000000e+00  0.0000000000e+00  5.7956935090e+02  5.7956935090e+02  0.0000000000e+00 0. 9.
       21    -1     0     0   103   101  0.0000000000e+00  0.0000000000e+00 -9.0054876615e+01  9.0054876615e+01  0.0000000000e+00 0. 9.
        6     2     1     2   103     0 -6.3015161084e+01  1.0217749451e+02  1.0900537757e+02  2.3553095326e+02  1.7082595440e+02  3.842618e-14 9.
       -6     2     1     2     0   102  6.3015161084e+01 -1.0217749451e+02  3.8050909672e+02  4.3409327425e+02  1.7099312019e+02  2.410101e-14 9.
       24     2     3     0     0     0 -9.9394821482e+01  5.1322307518e+01  4.3805510842e+01  1.4506663789e+02  8.1314801004e+01  1.584505e-15 9.
        5     1     3     0   103     0  3.6379660398e+01  5.0855186995e+01  6.5199866724e+01  9.0464315373e+01  4.8000000000e+00 0. 9.
      -24     2     4     0     0     0  1.1131800155e+02 -9.0532549750e+01  3.0411852516e+02  3.4283907676e+02  6.6803556620e+01  5.310098e-14 9.
       -5     1     4     0     0   102 -4.8302840467e+01 -1.1644944763e+01  7.6390571555e+01  9.1254197482e+01  4.8000000000e+00 0. 9.
       -1     1     5     0     0   104 -1.2749568043e+01 -4.8118971296e+00  3.9445386406e+01  4.1734317390e+01  3.3000000000e-01 0. 9.
        2     1     5     0   104     0 -8.6645253439e+01  5.6134204648e+01  4.3601244356e+00  1.0333232050e+02  3.3000000000e-01 0. 9.
        3     1     7     0   105     0  2.9790038402e+01 -1.7536688275e+01  1.4925968314e+02  1.5321124252e+02  5.0000000000e-01 0. 9.
       -4     1     7     0     0   105  8.1527963150e+01 -7.2995861476e+01  1.5485884202e+02  1.8962783424e+02  1.5000000000e+00 0. 9.
#pdf   21   21  8.916452e-02  1.385460e-02  2.087885e+02  9.497264e-01  6.276372e+00
</event>
<event>
    12  9999  1.000000e+00  1.879691e+02  7.882140e-03  1.065373e-01
       21    -1     0     0   101   102  0.0000000000e+00  0.0000000000e+00  2.7858727572e+02  2.7858727572e+02  0.0000000000e+00 0. 9.
       21    -1     0     0   102   103  0.0000000000e+00  0.0000000000e+00 -1.2733458533e+02  1.2733458533e+02  0.0000000000e+00 0. 9.
        6     2     1     2   101     0 -2.3739341777e+01  7.4330808788e+01  8.8584967855e+01  2.0813791614e+02  1.7142190677e+02  9.908691e-14 9.
       -6     2     1     2     0   103  2.3739341777e+01 -7.4330808788e+01  6.2667722536e+01  1.9778394491e+02  1.7059490008e+02  2.766283e-13 9.
       24     2     3     0     0     0  1.8236499019e+01 -8.8120848478e+00  5.4109488674e+00  8.3175244084e+01  8.0489875916e+01  9.028941e-14 9.
        5     1     3     0   101     0 -4.1975840796e+01  8.3142893636e+01  8.3174018987e+01  1.2496267206e+02  4.8000000000e+00 0. 9.
      -24     2     4     0     0     0  7.0951987685e+00 -3.8247825694e+01  1.0542274266e+02  1.3921739378e+02  8.2184487865e+01  6.678619e-14 9.
       -5     1     4     0     0   103  1.6644143008e+01 -3.6082983094e+01 -4.2755020125e+01  5.8566551130e+01  4.8000000000e+00 0. 9.
       -1     1     5     0     0   104 -1.2490963641e+01 -3.0230403099e+01 -1.9601798322e+01  3.8134509852e+01  3.3000000000e-01 0. 9.
        2     1     5     0   104     0  3.0727462660e+01  2.1418318251e+01  2.5012747189e+01  4.5040734232e+01  3.3000000000e-01 0. 9.
        1     1     7     0   105     0 -3.0879829217e+00 -4.4883098791e+01  1.4185818776e+01  4.7173875715e+01  3.3000000000e-01 0. 9.
       -2     1     7     0     0   105  1.0183181690e+01  6.6352730969e+00  9.1236923884e+01  9.2043518067e+01  3.3000000000e-01 0. 9.
#pdf   21   21  4.285958e-02  1.958994e-02  1.875933e+02  2.247258e+00  4.702358e+00
</event>
<event>
    12  9999  1.000000e+00  1.708025e+02  7.873522e-03  1.078018e-01
       21    -1     0     0   101   102  0.0000000000e+00  0.0000000000e+00  9.7199693639e+02  9.7199693639e+02  0.0000000000e+00 0. 9.
       21    -1     0     0   102   103  0.0000000000e+00  0.0000000000e+00 -3.6045675418e+01  3.6045675418e+01  0.0000000000e+00 0. 9.
        6     2     1     2   101     0 -1.9070423685e+01 -1.1886935924e+01  2.6215551052e+02  3.1297375658e+02  1.6947589889e+02  4.252811e-13 9.
       -6     2     1     2     0   103  1.9070423685e+01  1.1886935924e+01  6.7379575046e+02  6.9506885523e+02  1.6915974662e+02  1.481644e-13 9.
       24     2     3     0     0     0  3.2872098173e+01 -4.2815318777e+01  2.1531795042e+02  2.3634877711e+02  8.1149234787e+01  8.101700e-14 9.
        5     1     3     0   101     0 -5.1942521858e+01  3.0928382853e+01  4.6837560098e+01  7.6624979470e+01  4.8000000000e+00 0. 9.
      -24     2     4     0     0     0  5.0127940351e+01 -2.2327643393e+01  5.9722748516e+02  6.0550912081e+02  8.3362415340e+01  9.570475e-14 9.
       -5     1     4     0     0   103 -3.1057516666e+01  3.4214579317e+01  7.6568265293e+01  8.9559734419e+01  4.8000000000e+00 0. 9.
       -1     1     5     0     0   104  2.4200885069e+01 -2.3956089785e+01  1.9118020763e+01  3.9053613070e+01  3.3000000000e-01 0. 9.
        2     1     5     0   104     0  8.6712131037e+00 -1.8859228992e+01  1.9619992966e+02  1.9729516404e+02  3.3000000000e-01 0. 9.
        3     1     7     0   105     0  1.0772981138e+01 -4.4936012342e+01  1.8078104635e+02  1.8659404880e+02  5.0000000000e-01 0. 9.
       -4     1     7     0     0   105  3.9354959213e+01  2.2608368949e+01  4.1644643881e+02  4.1891507202e+02  1.5000000000e+00 0. 9.
#pdf   21   21  1.495380e-01  5.545489e-03  1.706458e+02  4.582569e-01  1.245059e+01
</event>
<event>
    12  9999  1.000000e+00  1.743997e+02  7.875395e-03  1.075227e-01
       21    -1     0     0   101   102  0.0000000000e+00  0.0000000000e+00  1.0785492688e+02  1.0785492688e+02  0.0000000000e+00 0. 9.
       21    -1     0     0   103   101  0.0000000000e+00  0.0000000000e+00 -1.2792426862e+03  1.2792426862e+03  0.0000000000e+00 0. 9.
        6     2     1     2   103     0 -2.4805699541e+01 -2.1212669276e+01 -1.1979225728e+03  1.2105272113e+03  1.7115004789e+02  8.460934e-14 9.
       -6     2     1     2     0   102  2.4805699541e+01  2.1212669276e+01  2.6534813507e+01  1.7657040172e+02  1.7148676441e+02  7.165916e-14 9.
       24     2     3     0     0     0 -1.0917894622e+01 -2.1792279263e+01 -2.7303218610e+02  2.8551992786e+02  7.9880853149e+01  1.801330e-13 9.
        5     1     3     0   103     0 -1.3887804920e+01  5.7960998763e-01 -9.2489038671e+02  9.2500728349e+02  4.8000000000e+00 0. 9.
      -24     2     4     0     0     0 -4.7077086834e+01  3.0260853016e+01  3.2806418888e+01  1.0369120276e+02  8.0892725754e+01  1.590583e-13 9.
       -5     1     4     0     0   102  7.1882786375e+01 -9.0481837404e+00 -6.2716053806e+00  7.2879198953e+01  4.8000000000e+00 0. 9.
      -13     1     5     0     0     0 -2.3439743499e+01 -4.7362183258e+01 -2.0644406987e+02  2.1310035929e+02  1.0566000000e-01  1.141781e+06 9.
       14     1     5     0     0     0  1.2521848877e+01  2.5569903995e+01 -6.6588116222e+01  7.2419568568e+01  0.0000000000e+00 0. 9.
        1     1     7     0   104     0 -1.4830603703e+01  6.3809174940e+00 -2.7124131356e+01  3.1567234850e+01  3.3000000000e-01 0. 9.
       -2     1     7     0     0   104 -3.2246483131e+01  2.3879935522e+01  5.9930550244e+01  7.2123967912e+01  3.3000000000e-01 0. 9.
#pdf   21   21  1.659307e-02  1.968066e-01  1.742344e+02  5.416222e+00  2.818946e-01
</event>
<event>
    12  9999  1.000000e+00  1.936033e+02  7.884801e-03  1.061539e-01
       -1    -1     0     0     0   101  0.0000000000e+00  0.0000000000e+00  2.4447675436e+01  2.4447675436e+01  0.0000000000e+00 0. 9.
        1    -1     0     0   102     0  0.0000000000e+00  0.0000000000e+00 -1.7321598710e+03  1.7321598710e+03  0.0000000000e+00 0. 9.
       -6     2     1     2     0   101  8.8519912718e+01 -2.1699905091e+01 -5.5736969791e+02  5.9013832615e+02  1.7115958345e+02  8.339468e-14 9.
        6     2     1     2   102     0 -8.8519912718e+01  2.1699905091e+01 -1.1503424977e+03  1.1664692203e+03  1.7045796888e+02  4.319497e-15 9.
      -24     2     3     0     0     0  1.1958519685e+01  9.4422117499e+00 -4.3178437749e+02  4.3971827745e+02  8.1745050756e+01  5.940768e-14 9.
       -5     1     3     0     0   101  7.6561393033e+01 -3.1142116841e+01 -1.2558532043e+02  1.5042004870e+02  4.8000000000e+00 0. 9.
       24     2     4     0     0     0 -8.6244854636e+01 -4.4093751780e+01 -6.7296081749e+02  6.8454568929e+02  7.9649889877e+01  1.243654e-13 9.
        5     1     4     0   102     0 -2.2750580820e+00  6.5793656871e+01 -4.7738168021e+02  4.8192353104e+02  4.8000000000e+00 0. 9.
        3     1     5     0   103     0  8.9906834765e+00 -1.6071662143e+01 -2.0232987189e+01  2.7363378520e+01  5.0000000000e-01 0. 9.
       -4     1     5     0     0   103  2.9678362086e+00  2.5513873893e+01 -4.1155139030e+02  4.1235489893e+02  1.5000000000e+00 0. 9.
       -1     1     7     0     0   104  1.1395148582e+01  8.5945587319e+00 -8.9127483755e+01  9.0263686560e+01  3.3000000000e-01 0. 9.
        2     1     7     0   104     0 -9.7640003218e+01 -5.2688310512e+01 -5.8383333373e+02  5.9428200273e+02  3.3000000000e-01 0. 9.
#pdf   -1    1  3.761181e-03  2.664861e-01  1.932940e+02  8.933310e-01  1.529926e-01
</event>
<event>
    12  9999  1.000000e+00  2.305016e+02  7.900558e-03  1.039451e-01
       21    -1     0     0   101   102  0.0000000000e+00  0.0000000000e+00  1.6752953848e+02  1.6752953848e+02  0.0000000000e+00 0. 9.
       21    -1     0     0   102   103  0.0000000000e+00  0.0000000000e+00 -4.0472401326e+02  4.0472401326e+02  0.0000000000e+00 0. 9.
        6     2     1     2   101     0 -4.2506358001e+01  1.4969765235e+02  1.5228504534e+01  2.2917163263e+02  1.6754567217e+02  3.540615e-13 9.
       -6     2     1     2     0   103  4.2506358001e+01 -1.4969765235e+02 -2.5242297932e+02  3.4308191911e+02  1.7254467579e+02  6.567581e-13 9.
       24     2     3     0     0     0 -3.0421078859e+00  1.0208220341e+02  6.6912944732e+01  1.4843143587e+02  8.4406861736e+01  3.000930e-14 9.
        5     1     3     0   101     0 -3.9464250115e+01  4.7615448937e+01 -5.1684440198e+01  8.0740196762e+01  4.8000000000e+00 0. 9.
      -24     2     4     0     0     0  2.6382422596e+01 -1.6458995241e+02 -2.6006186216e+02  3.1935104417e+02  8.1037229764e+01  1.192563e-13 9.
       -5     1     4     0     0   103  1.6123935405e+01  1.4892300066e+01  7.6388828417e+00  2.3730874936e+01  4.8000000000e+00 0. 9.
       -1     1     5     0     0   104 -1.9010769716e+01  7.5465341050e+01  3.5866240445e+00  7.7906352995e+01  3.3000000000e-01 0. 9.
        2     1     5     0   104     0  1.5968661830e+01  2.6616862359e+01  6.3326320688e+01  7.0525082873e+01  3.3000000000e-01 0. 9.
        1     1     7     0   105     0  6.0396253625e-02 -5.4791829514e+01 -2.8576459040e+01  6.1797015628e+01  3.3000000000e-01 0. 9.
       -2     1     7     0     0   105  2.6322026342e+01 -1.0979812290e+02 -2.3148540312e+02  2.5755402855e+02  3.3000000000e-01 0. 9.
#pdf   21   21  2.577378e-02  6.226523e-02  2.286651e+02  3.662833e+00  1.470333e+00
</event>
<event>
    12  9999  1.000000e+00  2.440763e+02  7.905741e-03  1.032407e-01
       21    -1     0     0   101   102  0.0000000000e+00  0.0000000000e+00  2.4920121083e+02  2.4920121083e+02  0.0000000000e+00 0. 9.
       21    -1     0     0   103   101  0.0000000000e+00  0.0000000000e+00 -2.4310326562e+02  2.4310326562e+02  0.0000000000e+00 0. 9.
        6     2     1     2   103     0 -7.3081888350e+01  1.5057988535e+02 -2.8344820889e+01  2.5011852689e+02  1.8368610275e+02  6.875784e-14 9.
       -6     2     1     2     0   102  7.3081888350e+01 -1.5057988535e+02  3.4442766092e+01  2.4218594956e+02  1.7161720703e+02  1.775377e-14 9.
       24     2     3     0     0     0  3.2186101270e+01  6.1750398887e+01 -3.4439953042e+01  1.1216122212e+02  8.0901004343e+01  1.423637e-14 9.
        5     1     3     0   103     0 -1.0526798962e+02  8.8829486467e+01  6.0951321524e+00  1.3795730477e+02  4.8000000000e+00 0. 9.
      -24     2     4     0     0     0  7.5943106110e+01 -8.0168788531e+01 -3.3781059894e+01  1.4398493350e+02  8.6000645620e+01  6.921272e-14 9.
       -5     1     4     0     0   102 -2.8612177601e+00 -7.0411096822e+01  6.8223825986e+01  9.8201016059e+01  4.8000000000e+00 0. 9.
       -1     1     5     0     0   104  2.5556568884e+00  5.6781372584e+01 -5.2272651999e+01  7.7221724285e+01  3.3000000000e-01 0. 9.
        2     1     5     0   104     0  2.9630444381e+01  4.9690263030e+00  1.7832698957e+01  3.4939497832e+01  3.3000000000e-01 0. 9.
        1     1     7     0   105     0  2.9984929309e+01 -8.1549211985e+01 -4.3223839280e+01  9.7045242764e+01  3.3000000000e-01 0. 9.
       -2     1     7     0     0   105  4.5958176801e+01  1.3804234539e+00  9.4427793862e+00  4.6939690736e+01  3.3000000000e-01 0. 9.
#pdf   21   21  3.833865e-02  3.740050e-02  2.397243e+02  2.487459e+00  2.550820e+00
</event>
<event>
    12  9999  1.000000e+00  2.300226e+02  7.900370e-03  1.039709e-01
       21    -1     0     0   101   102  0.0000000000e+00  0.0000000000e+00  4.2113898509e+01  4.2113898509e+01  0.0000000000e+00 0. 9.
       21    -1     0     0   103   101  0.0000000000e+00  0.0000000000e+00 -1.7696693198e+03  1.7696693198e+03  0.0000000000e+00 0. 9.
        6     2     1     2   103     0  1.2953443341e+02  8.2355181123e+01 -1.3523680586e+03  1.3718351809e+03  1.7167076706e+02  1.289708e-14 9.
       -6     2     1     2     0   102 -1.2953443341e+02 -8.2355181123e+01 -3.7518736267e+02  4.3994803742e+02  1.7095956605e+02  1.097230e-13 9.
       24     2     3     0     0     0  4.7348348902e+01 -2.1244128479e+01 -6.7089336196e+02  6.7763191698e+02  7.9962070083e+01  5.797443e-15 9.
        5     1     3     0   103     0  8.2186084506e+01  1.0359930960e+02 -6.8147469665e+02  6.9420326390e+02  4.8000000000e+00 0. 9.
      -24     2     4     0     0     0 -1.9497361042e+01 -8.0987285418e+01 -1.5164086514e+02  1.9073707259e+02  8.0290668146e+01  2.207717e-13 9.
       -5     1     4     0     0   102 -1.1003707237e+02 -1.3678957042e+00 -2.2354649753e+02  2.4921096483e+02  4.8000000000e+00 0. 9.
       -3     1     5     0     0   104  5.1655537146e+01 -3.4237810904e+01 -6.4770177718e+02  6.5065994527e+02  5.0000000000e-01 0. 9.
        4     1     5     0   104     0 -4.3071882436e+00  1.2993682425e+01 -2.3191584776e+01  2.6971971710e+01  1.5000000000e+00 0. 9.
        1     1     7     0   105     0  2.3422470619e+01 -4.3707460855e+00 -5.6184212965e+01  6.1028601801e+01  3.3000000000e-01 0. 9.
       -2     1     7     0     0   105 -4.2919831661e+01 -7.6616539333e+01 -9.5456652178e+01  1.2970847079e+02  3.3000000000e-01 0. 9.
#pdf   21   21  6.479061e-03  2.722568e-01  2.297580e+02  1.124953e+01  1.289809e-01
</event>
<event>
    12  9999  1.000000e+00  2.079815e+02  7.891264e-03  1.052354e-01
       21    -1     0     0   101   102  0.0000000000e+00  0.0000000000e+00  1.4730875067e+03  1.4730875067e+03  0.0000000000e+00 0. 9.
       21    -1     0     0   102   103  0.0000000000e+00  0.0000000000e+00 -5.2382154828e+01  5.2382154828e+01  0.0000000000e+00 0. 9.
        6     2     1     2   101     0  6.1315182619e+01 -1.0054202983e+02  1.2130139378e+03  1.2304588985e+03  1.6958194572e+02  2.226067e-13 9.
       -6     2     1     2     0   103 -6.1315182619e+01  1.0054202983e+02  2.0769141411e+02  2.9501076303e+02  1.7328408879e+02  1.034922e-14 9.
       24     2     3     0     0     0  8.4525461922e+01 -2.4075534085e+01  5.9020776087e+02  6.0252863485e+02  8.3494728967e+01  4.326964e-13 9.
        5     1     3     0   101     0 -2.3210279303e+01 -7.6466495743e+01  6.2280617692e+02  6.2793026368e+02  4.8000000000e+00 0. 9.
      -24     2     4     0     0     0 -2.0526644392e+01  3.2317230930e+01  1.9476025269e+02  2.1433497378e+02  8.0883733919e+01  7.557675e-14 9.
       -5     1     4     0     0   103 -4.0788538227e+01  6.8224798897e+01  1.2931161422e+01  8.0675789249e+01  4.8000000000e+00 0. 9.
       -1     1     5     0     0   104  2.7181359449e+01 -8.3660425828e+00  4.4091671923e+02  4.4183308971e+02  3.3000000000e-01 0. 9.
        2     1     5     0   104     0  5.7344102473e+01 -1.5709491502e+01  1.4929104164e+02  1.6069554514e+02  3.3000000000e-01 0. 9.
        3     1     7     0   105     0  2.3626356780e+01 -5.5639510196e+00  1.0185040405e+02  1.0470394974e+02  5.0000000000e-01 0. 9.
       -4     1     7     0     0   105 -4.4153001172e+01  3.7881181950e+01  9.2909848642e+01  1.0963102404e+02  1.5000000000e+00 0. 9.
#pdf   21   21  2.266288e-01  8.058793e-03  2.064613e+02  2.049418e-01  9.561195e+00
</event>
<event>
    12  9999  1.000000e+00  2.935619e+02  7.922507e-03  1.010327e-01
       21    -1     0     0   101   102  0.0000000000e+00  0.0000000000e+00  2.5318442673e+02  2.5318442673e+02  0.0000000000e+00 0. 9.
       21    -1     0     0   103   101  0.0000000000e+00  0.0000000000e+00 -4.8335140633e+02  4.8335140633e+02  0.0000000000e+00 0. 9.
        6     2     1     2   103     0  1.8193094775e+02  1.5064324124e+02 -3.1504663629e+02  4.2982719221e+02  1.7235073614e+02  6.086559e-14 9.
       -6     2     1     2     0   102 -1.8193094775e+02 -1.5064324124e+02  8.4879656691e+01  3.0670864084e+02  1.7627642601e+02  1.827668e-13 9.
       24     2     3     0     0     0  9.6426799866e+01  2.7160909005e+01 -1.6846602540e+02  2.1990396537e+02  9.9705113011e+01  1.692769e-13 9.
        5     1     3     0   103     0  8.5504147885e+01  1.2348233224e+02 -1.4658061089e+02  2.0992322685e+02  4.8000000000e+00 0. 9.
      -24     2     4     0     0     0 -1.4463864736e+02 -1.7538338181e+02  9.7357263709e+01  2.6000188651e+02  8.0267523111e+01  9.677323e-14 9.
       -5     1     4     0     0   102 -3.7292300388e+01  2.4740140565e+01 -1.2477607018e+01  4.6706754333e+01  4.8000000000e+00 0. 9.
       -3     1     5     0     0   104 -5.6304228733e-01  1.7144677030e+01 -9.8250873335e+01  9.9738363122e+01  5.0000000000e-01 0. 9.
        4     1     5     0   104     0  9.6989842153e+01  1.0016231975e+01 -7.0215152063e+01  1.2016560225e+02  1.5000000000e+00 0. 9.
        1     1     7     0   105     0 -2.5456650303e+01 -8.1936041998e+01  5.7861943323e+01  1.0348753262e+02  3.3000000000e-01 0. 9.
       -2     1     7     0     0   105 -1.1918199706e+02 -9.3447339809e+01  3.9495320386e+01  1.5651435389e+02  3.3000000000e-01 0. 9.
#pdf   21   21  3.895145e-02  7.436175e-02  2.923988e+02  2.422395e+00  1.162569e+00
</event>
<event>
    12  9999  1.000000e+00  2.187643e+02  7.895831e-03  1.045970e-01
       21    -1     0     0   101   102  0.0000000000e+00  0.0000000000e+00  1.5937637895e+02  1.5937637895e+02  0.0000000000e+00 0. 9.
       21    -1     0     0   102   103  0.0000000000e+00  0.0000000000e+00 -4.2901452339e+02  4.2901452339e+02  0.0000000000e+00 0. 9.
        6     2     1     2   101     0  4.9906488934e+01 -1.3391539476e+02 -2.9215740860e+02  3.6029166912e+02  1.5501659539e+02  2.662988e-14 9.
       -6     2     1     2     0   103 -4.9906488934e+01  1.3391539476e+02  2.2519264161e+01  2.2809923321e+02  1.7634668225e+02  8.201375e-14 9.
       24     2     3     0     0     0  1.1801590498e+01 -1.2617639770e+02 -1.5137067669e+02  2.1415536548e+02  8.3004083796e+01  6.692986e-14 9.
        5     1     3     0   101     0  3.8104898436e+01 -7.7389970609e+00 -1.4078673191e+02  1.4613630364e+02  4.8000000000e+00 0. 9.
      -24     2     4     0     0     0 -1.0012398377e+02  9.8516559967e+01  3.4566978841e+01  1.6530543000e+02  8.0004277687e+01  1.856002e-13 9.
       -5     1     4     0     0   103  5.0217494837e+01  3.5398834794e+01 -1.2047714680e+01  6.2793803209e+01  4.8000000000e+00 0. 9.
      -15     1     5     0     0     0 -9.9454671921e+00 -2.5718738239e+01 -9.0665916004e+01  9.4783074588e+01  1.7768200000e+00  3.312098e-02 9.
       16     1     5     0     0     0  2.1747057690e+01 -1.0045765946e+02 -6.0704760689e+01  1.1937229089e+02  0.0000000000e+00 0. 9.
        1     1     7     0   104     0 -8.3373573465e+01  7.9165239404e+01 -8.4155499515e+00  1.1527887171e+02  3.3000000000e-01 0. 9.
       -2     1     7     0     0   104 -1.6750410306e+01  1.9351320563e+01  4.2982528793e+01  5.0026558290e+01  3.3000000000e-01 0. 9.
#pdf   21   21  2.451944e-02  6.600223e-02  2.108415e+02  3.844090e+00  1.381498e+00
</event>
<event>
    12  9999  1.000000e+00  2.098106e+02  7.892055e-03  1.051243e-01
       21    -1     0     0   101   102  0.0000000000e+00  0.0000000000e+00  2.0856207930e+02  2.0856207930e+02  0.0000000000e+00 0. 9.
       21    -1     0     0   103   101  0.0000000000e+00  0.0000000000e+00 -2.1317925948e+02  2.1317925948e+02  0.0000000000e+00 0. 9.
        6     2     1     2   103     0 -1.9185827454e+01 -1.1980012874e+02 -2.3301891919e+01  2.1148348336e+02  1.7164532836e+02  2.462536e-13 9.
       -6     2     1     2     0   102  1.9185827454e+01  1.1980012874e+02  1.8684711742e+01  2.1025785542e+02  1.7070172961e+02  1.316528e-13 9.
       24     2     3     0     0     0 -6.0680035685e+01 -1.1523750913e+02  1.5083986325e+01  1.5457037008e+02  8.1870155878e+01  6.319951e-14 9.
        5     1     3     0   103     0  4.1494208232e+01 -4.5626196116e+00 -3.8385878243e+01  5.6913113278e+01  4.8000000000e+00 0. 9.
      -24     2     4     0     0     0  4.8440661968e+00  1.2120020432e+02  6.4710063086e+01  1.6179117311e+02  8.5299688914e+01  7.783038e-14 9.
       -5     1     4     0     0   102  1.4341761257e+01 -1.4000755774e+00 -4.6025351345e+01  4.8466682308e+01  4.8000000000e+00 0. 9.
      -13     1     5     0     0     0 -4.8985191611e+01 -1.8375055543e+01 -1.1247629598e+01  5.3513661798e+01  1.0566000000e-01  1.310594e+05 9.
       14     1     5     0     0     0 -1.1694844074e+01 -9.6862453585e+01  2.6331615923e+01  1.0105670829e+02  0.0000000000e+00 0. 9.
        3     1     7     0   104     0  1.2987514911e+00  9.9553410391e+00 -1.9685015213e+01  2.2103063013e+01  5.0000000000e-01 0. 9.
       -4     1     7     0     0   104  3.5453147057e+00  1.1124486328e+02  8.4395078299e+01  1.3968811010e+02  1.5000000000e+00 0. 9.
#pdf   21   21  3.208647e-02  3.279681e-02  2.094260e+02  2.987488e+00  2.924651e+00
</event>
<event>
    12  9999  1.000000e+00  2.052406e+02  7.890067e-03  1.054043e-01
       21    -1     0     0   101   102  0.0000000000e+00  0.0000000000e+00  3.5721563768e+02  3.5721563768e+02  0.0000000000e+00 0. 9.
       21    -1     0     0   102   103  0.0000000000e+00  0.0000000000e+00 -1.7091314115e+02  1.7091314115e+02  0.0000000000e+00 0. 9.
        6     2     1     2   101     0 -1.0852058256e+02  1.2948048743e+01  2.3984766729e+02  3.1498545324e+02  1.7246612260e+02  2.264432e-13 9.
       -6     2     1     2     0   103  1.0852058256e+02 -1.2948048743e+01 -5.3545170766e+01  2.1314332558e+02  1.7498177940e+02  2.086422e-14 9.
       24     2     3     0     0     0 -1.3033402737e+02  4.8986649110e+01  1.7621973277e+02  2.3852526006e+02  8.0338378037e+01  9.125264e-15 9.
        5     1     3     0   101     0  2.1813444808e+01 -3.6038600368e+01  6.3627934520e+01  7.6460193187e+01  4.8000000000e+00 0. 9.
      -24     2     4     0     0     0 -1.5289734412e+01  6.0680743559e+00 -1.8804764499e+01  8.3064336679e+01  7.9217847454e+01  7.178731e-14 9.
       -5     1     4     0     0   103  1.2381031697e+02 -1.9016123098e+01 -3.4740406268e+01  1.3007898890e+02  4.8000000000e+00 0. 9.
       -1     1     5     0     0   104 -1.1264504603e+02  2.4289391283e+01  1.7315010602e+02  2.0799026188e+02  3.3000000000e-01 0. 9.
        2     1     5     0   104     0 -1.7688981343e+01  2.4697257827e+01  3.0696267524e+00  3.0534998174e+01  3.3000000000e-01 0. 9.
        3     1     7     0   105     0 -1.5289826804e+01 -1.5076718846e+00  2.9969773393e+01  3.3682179196e+01  5.0000000000e-01 0. 9.
       -4     1     7     0     0   105  9.2391847948e-05  7.5757462405e+00 -4.8774537891e+01  4.9382157482e+01  1.5000000000e+00 0. 9.
#pdf   21   21  5.495625e-02  2.629433e-02  2.041787e+02  1.710317e+00  3.609429e+00
</event>
<event>
    12  9999  1.000000e+00  1.881399e+02  7.882221e-03  1.065255e-01
       21    -1     0     0   101   102  0.0000000000e+00  0.0000000000e+00  7.1314827572e+01  7.1314827572e+01  0.0000000000e+00 0. 9.
       21    -1     0     0   102   103  0.0000000000e+00  0.0000000000e+00 -5.9965585908e+02  5.9965585908e+02  0.0000000000e+00 0. 9.
        6     2     1     2   101     0  1.8537027615e+01 -7.5890269989e+01 -1.2481237275e+02  2.2569936550e+02  1.7105297637e+02  4.596005e-13 9.
       -6     2     1     2     0   103 -1.8537027615e+01  7.5890269989e+01 -4.0352865876e+02  4.4527132115e+02  1.7125482920e+02  7.484211e-14 9.
       24     2     3     0     0     0 -6.9750478928e+00 -1.1399704391e+02 -1.0453262651e+02  1.7532774330e+02  8.2272536445e+01  7.650915e-14 9.
        5     1     3     0   101     0  2.5512075507e+01  3.8106773924e+01 -2.0279746237e+01  5.0371622199e+01  4.8000000000e+00 0. 9.
      -24     2     4     0     0     0  4.2796152825e+01  6.8406892805e+01 -1.7180319074e+02  2.0540158048e+02  7.8501332706e+01  4.283162e-14 9.
       -5     1     4     0     0   103 -6.1333180439e+01  7.4833771844e+00 -2.3172546803e+02  2.3986974067e+02  4.8000000000e+00 0. 9.
      -13     1     5     0     0     0 -2.0214094881e+01 -1.1975341837e+02 -1.0548222753e+02  1.6086019499e+02  1.0566000000e-01  3.934263e+05 9.
       14     1     5     0     0     0  1.3239046988e+01  5.7563744576e+00  9.4960102423e-01  1.4467548312e+01  0.0000000000e+00 0. 9.
        1     1     7     0   104     0  3.5407914554e+01 -7.3415690747e+00 -6.2570720249e+01  7.2269101157e+01  3.3000000000e-01 0. 9.
       -2     1     7     0     0   104  7.3882382702e+00  7.5748461879e+01 -1.0923247049e+02  1.3313247932e+02  3.3000000000e-01 0. 9.
#pdf   21   21  1.097151e-02  9.225475e-02  1.880481e+02  7.552467e+00  9.173293e-01
</event>
<event>
    12  9999  1.000000e+00  2.254128e+02  7.898538e-03  1.042225e-01
       21    -1     0     0   101   102  0.0000000000e+00  0.0000000000e+00  3.4629782252e+02  3.4629782252e+02  0.0000000000e+00 0. 9.
       21    -1     0     0   102   103  0.0000000000e+00  0.0000000000e+00 -3.9922266126e+02  3.9922266126e+02  0.0000000000e+00 0. 9.
        6     2     1     2   101     0 -1.4695483563e+02  4.7062147714e+00  2.6999475131e+02  3.5159607033e+02  1.7060116871e+02  2.134301e-14 9.
       -6     2     1     2     0   103  1.4695483563e+02 -4.7062147714e+00 -3.2291959005e+02  3.9392441345e+02  1.7111840844e+02  1.192172e-13 9.
       24     2     3     0     0     0 -2.0702494777e+01 -3.0053988243e+01  8.1916423740e+01  1.2237036805e+02  8.3260861152e+01  5.800950e-13 9.
        5     1     3     0   101     0 -1.2625234085e+02  3.4760203015e+01  1.8807832757e+02  2.2922570228e+02  4.8000000000e+00 0. 9.
      -24     2     4     0     0     0  1.0723253778e+02 -2.0832170136e+01 -3.2364656056e+02  3.5077958910e+02  7.9789895926e+01  4.349311e-14 9.
       -5     1     4     0     0   103  3.9722297843e+01  1.6125955365e+01  7.2697051582e-01  4.3144824354e+01  4.8000000000e+00 0. 9.
       -3     1     5     0     0   104 -6.6830943062e+00  2.1097746651e+01 -2.9099623745e+00  2.2327036173e+01  5.0000000000e-01 0. 9.
        2     1     5     0   104     0 -1.4019400470e+01 -5.1151734894e+01  8.4826386115e+01  1.0004333188e+02  3.3000000000e-01 0. 9.
        1     1     7     0   105     0  2.8008559938e+00  2.2087041298e+01 -4.8453925225e+01  5.3325171892e+01  3.3000000000e-01 0. 9.
       -2     1     7     0     0   105  1.0443168179e+02 -4.2919211434e+01 -2.7519263534e+02  2.9745441721e+02  3.3000000000e-01 0. 9.
#pdf   21   21  5.327659e-02  6.141887e-02  2.252169e+02  1.758640e+00  1.495755e+00
</event>
<event>
    12  9999  1.000000e+00  2.103925e+02  7.892305e-03  1.050892e-01
       21    -1     0     0   101   102  0.0000000000e+00  0.0000000000e+00  1.1231661402e+02  1.1231661402e+02  0.0000000000e+00 0. 9.
       21    -1     0     0   102   103  0.0000000000e+00  0.0000000000e+00 -4.2677490367e+02  4.2677490367e+02  0.0000000000e+00 0. 9.
        6     2     1     2   101     0  9.1942775375e+01 -4.9291864489e+01 -8.9735492038e+01  2.3718269612e+02  1.9318387862e+02  7.242905e-14 9.
       -6     2     1     2     0   103 -9.1942775375e+01  4.9291864489e+01 -2.2472279762e+02  3.0190882157e+02  1.7252663251e+02  3.294491e-13 9.
       24     2     3     0     0     0 -6.7694948850e+00  1.2736009512e+01 -8.9047233061e+01  1.2049900765e+02  7.9890982786e+01  1.720446e-13 9.
        5     1     3     0   101     0  9.8712270260e+01 -6.2027874001e+01 -6.8825897657e-01  1.1668368846e+02  4.8000000000e+00 0. 9.
      -24     2     4     0     0     0 -5.4587075441e+01 -4.3453820660e+00 -3.7010600940e+01  1.0308399586e+02  7.9106854766e+01  1.292675e-13 9.
       -5     1     4     0     0   103 -3.7355699934e+01  5.3637246555e+01 -1.8771219668e+02  1.9882482571e+02  4.8000000000e+00 0. 9.
       -3     1     5     0     0   104 -1.1375146677e+01 -3.1135447347e+01 -2.0483021478e+01  3.8969400974e+01  5.0000000000e-01 0. 9.
        2     1     5     0   104     0  4.6056517920e+00  4.3871456859e+01 -6.8564211583e+01  8.1529606680e+01  3.3000000000e-01 0. 9.
        1     1     7     0   105     0 -5.1741703373e+01 -2.0924077696e+01 -5.5065737662e+01  7.8405135416e+01  3.3000000000e-01 0. 9.
       -2     1     7     0     0   105 -2.8453720684e+00  1.6578695630e+01  1.8055136722e+01  2.4678860449e+01  3.3000000000e-01 0. 9.
#pdf   21   21  1.727948e-02  6.565768e-02  2.016150e+02  5.228508e+00  1.395042e+00
</event>
<event>
    12  9999  1.000000e+00  1.850982e+02  7.880753e-03  1.067382e-01
       21    -1     0     0   101   102  0.0000000000e+00  0.0000000000e+00  1.3950906254e+02  1.3950906254e+02  0.0000000000e+00 0. 9.
       21    -1     0     0   103   101  0.0000000000e+00  0.0000000000e+00 -2.4572877358e+02  2.4572877358e+02  0.0000000000e+00 0. 9.
        6     2     1     2   103     0 -2.9640541914e+01 -6.1911525382e+01 -5.7784441468e+01  1.9396030087e+02  1.7195917521e+02  1.832242e-14 9.
       -6     2     1     2     0   102  2.9640541914e+01  6.1911525382e+01 -4.8435269569e+01  1.9127753525e+02  1.7184155915e+02  1.355144e-13 9.
       24     2     3     0     0     0  3.6621818038e+01 -1.7470383774e+01 -6.8733086644e+01  1.1328423103e+02  8.0390969236e+01  1.478793e-14 9.
        5     1     3     0   103     0 -6.6262359951e+01 -4.4441141607e+01  1.0948645176e+01  8.0676069840e+01  4.8000000000e+00 0. 9.
      -24     2     4     0     0     0  1.0272874857e+01 -2.6885360276e+01 -5.2623361729e+01  1.0017005177e+02  8.0227591994e+01  9.815936e-14 9.
       -5     1     4     0     0   102  1.9367667056e+01  8.8796885658e+01  4.1880921594e+00  9.1107483478e+01  4.8000000000e+00 0. 9.
      -13     1     5     0     0     0  3.2147871255e+01 -3.9094092194e+01 -7.4862851047e+01  9.0367534556e+01  1.0566000000e-01  1.435094e+05 9.
       14     1     5     0     0     0  4.4739467830e+00  2.1623708420e+01  6.1297644035e+00  2.2916696474e+01  0.0000000000e+00 0. 9.
       11     1     7     0     0     0  4.3610589330e+01 -2.8088583802e+01 -3.2272496035e+01  6.1093093245e+01  5.1100000000e-04 0. 9.
      -12     1     7     0     0     0 -3.3337714473e+01  1.2032235258e+00 -2.0350865694e+01  3.9076958526e+01  0.0000000000e+00 0. 9.
#pdf   21   21  2.146293e-02  3.780443e-02  1.850436e+02  4.343964e+00  2.555974e+00
</event>
<event>
    12  9999  1.000000e+00  1.835385e+02  7.879991e-03  1.068490e-01
       21    -1     0     0   101   102  0.0000000000e+00  0.0000000000e+00  9.7513014209e+01  9.7513014209e+01  0.0000000000e+00 0. 9.
       21    -1     0     0   102   103  0.0000000000e+00  0.0000000000e+00 -3.6842798436e+02  3.6842798436e+02  0.0000000000e+00 0. 9.
        6     2     1     2   101     0  6.4372948858e+01 -1.7188236004e+01 -7.7063416476e+01  1.9876640905e+02  1.7067513939e+02  1.717355e-13 9.
       -6     2     1     2     0   103 -6.4372948858e+01  1.7188236004e+01 -1.9385155368e+02  2.6717458952e+02  1.7136080188e+02  8.233429e-14 9.
       24     2     3     0     0     0  5.2112386854e+01  2.1057531651e+00  1.9602377759e+01  9.9318456965e+01  8.2217805980e+01  2.773477e-13 9.
        5     1     3     0   101     0  1.2260562004e+01 -1.9293989170e+01 -9.6665794235e+01  9.9447952085e+01  4.8000000000e+00 0. 9.
      -24     2     4     0     0     0 -9.8009921029e+01  1.6470764788e+00 -8.5349299336e+01  1.5241940344e+02  7.9614786098e+01  2.170728e-13 9.
       -5     1     4     0     0   103  3.3636972170e+01  1.5541159526e+01 -1.0850225434e+02  1.1475518608e+02  4.8000000000e+00 0. 9.
       -3     1     5     0     0   104  7.3905184438e+01 -2.2185166280e-01  2.2268786651e+01  7.7189211448e+01  5.0000000000e-01 0. 9.
        4     1     5     0   104     0 -2.1792797585e+01  2.3276048279e+00 -2.6664088919e+00  2.2129245517e+01  1.5000000000e+00 0. 9.
        3     1     7     0   105     0 -1.3845267120e+01  3.1703766796e+01 -1.1452403684e+01  3.6444859732e+01  5.0000000000e-01 0. 9.
       -4     1     7     0     0   105 -8.4164653909e+01 -3.0056690318e+01 -7.3896895651e+01  1.1597454370e+02  1.5000000000e+00 0. 9.
#pdf   21   21  1.500200e-02  5.668123e-02  1.832193e+02  5.884868e+00  1.664353e+00
</event>
<event>
    12  9999  1.000000e+00  2.056562e+02  7.890249e-03  1.053785e-01
       21    -1     0     0   101   102  0.0000000000e+00  0.0000000000e+00  4.2049598003e+02  4.2049598003e+02  0.0000000000e+00 0. 9.
       21    -1     0     0   103   101  0.0000000000e+00  0.0000000000e+00 -1.0576688218e+02  1.0576688218e+02  0.0000000000e+00 0. 9.
        6     2     1     2   103     0  2.1080106691e+01  1.1155470846e+02  9.8566377903e+01  2.2737845135e+02  1.7057785732e+02  6.025256e-13 9.
       -6     2     1     2     0   102 -2.1080106691e+01 -1.1155470846e+02  2.1616271995e+02  2.9888441087e+02  1.7238545671e+02  2.145222e-14 9.
       24     2     3     0     0     0 -1.2567690841e+01  1.2633440705e+02  3.5990973148e+01  1.5465063652e+02  8.0642048392e+01  2.013830e-13 9.
        5     1     3     0   103     0  3.3647797532e+01 -1.4779698596e+01  6.2575404755e+01  7.2727814828e+01  4.8000000000e+00 0. 9.
      -24     2     4     0     0     0 -4.3542710885e+01 -1.1994655625e+02  2.2682728087e+02  2.7220549492e+02  7.9762598326e+01  3.117544e-14 9.
       -5     1     4     0     0   102  2.2462604195e+01  8.3918477902e+00 -1.0664560919e+01  2.6678915947e+01  4.8000000000e+00 0. 9.
       -3     1     5     0     0   104 -4.6003718772e+01  5.7484789495e+01  1.3442688083e+01  7.4845167025e+01  5.0000000000e-01 0. 9.
        4     1     5     0   104     0  3.3436027930e+01  6.8849617558e+01  2.2548285065e+01  7.9805469493e+01  1.5000000000e+00 0. 9.
        1     1     7     0   105     0 -4.3525720646e+01 -9.5274960370e+01  1.0655055841e+02  1.4941531658e+02  3.3000000000e-01 0. 9.
       -4     1     7     0     0   105 -1.6990239632e-02 -2.4671595878e+01  1.2027672245e+02  1.2279017834e+02  1.5000000000e+00 0. 9.
#pdf   21   21  6.469169e-02  1.627183e-02  2.049040e+02  1.417862e+00  5.498085e+00
</event>
<event>
    12  9999  1.000000e+00  1.808014e+02  7.878639e-03  1.070463e-01
       21    -1     0     0   101   102  0.0000000000e+00  0.0000000000e+00  1.1004176224e+02  1.1004176224e+02  0.0000000000e+00 0. 9.
       21    -1     0     0   102   103  0.0000000000e+00  0.0000000000e+00 -4.2687294931e+02  4.2687294931e+02  0.0000000000e+00 0. 9.
        6     2     1     2   101     0  4.7204708336e+01  3.4167489654e+01 -1.0407320724e+01  1.8115482058e+02  1.7121055708e+02  8.790142e-14 9.
       -6     2     1     2     0   103 -4.7204708336e+01 -3.4167489654e+01 -3.0642386634e+02  3.5575989097e+02  1.7109591557e+02  4.744962e-14 9.
       24     2     3     0     0     0  9.0981898340e+01  1.1706983263e+01  1.8992086633e+01  1.2363715490e+02  8.0688830913e+01  7.254073e-15 9.
        5     1     3     0   101     0 -4.3777190004e+01  2.2460506391e+01 -2.9399407357e+01  5.7517665677e+01  4.8000000000e+00 0. 9.
      -24     2     4     0     0     0  1.5426184340e+01  2.4375682263e+01 -9.5420133815e+01  1.2795394980e+02  8.0218889813e+01  1.343959e-13 9.
       -5     1     4     0     0   103 -6.2630892676e+01 -5.8543171916e+01 -2.1100373252e+02  2.2780594117e+02  4.8000000000e+00 0. 9.
       -3     1     5     0     0   104  5.8397367547e+01 -3.1207946976e+01  2.1657095009e+01  6.9666837556e+01  5.0000000000e-01 0. 9.
        4     1     5     0   104     0  3.2584530794e+01  4.2914930239e+01 -2.6650083763e+00  5.3970317343e+01  1.5000000000e+00 0. 9.
       15     1     7     0     0     0 -2.3238801168e+01  1.6181080378e+01 -4.3858805953e+00  2.8709968301e+01  1.7768200000e+00  3.430005e-02 9.
      -16     1     7     0     0     0  3.8664985508e+01  8.1946018851e+00 -9.1034253219e+01  9.9243981498e+01  0.0000000000e+00 0. 9.
#pdf   21   21  1.692950e-02  6.567276e-02  1.807471e+02  5.325135e+00  1.406440e+00
</event>
<event>
    12  9999  1.000000e+00  4.127691e+02  7.953645e-03  9.719825e-02
       21    -1     0     0   101   102  0.0000000000e+00  0.0000000000e+00  1.9781419260e+02  1.9781419260e+02  0.0000000000e+00 0. 9.
       21    -1     0     0   102   103  0.0000000000e+00  0.0000000000e+00 -8.8235958650e+02  8.8235958650e+02  0.0000000000e+00 0. 9.
        6     2     1     2   101     0  3.6369801722e+02 -9.4812259050e+01 -4.2572851802e+02  5.9300170568e+02  1.7070629657e+02  8.101240e-14 9.
       -6     2     1     2     0   103 -3.6369801722e+02  9.4812259050e+01 -2.5881687587e+02  4.8717207342e+02  1.7054278552e+02  1.362807e-13 9.
       24     2     3     0     0     0  2.2174934854e+02 -1.1886987846e+02 -3.1637103362e+02  4.1214183455e+02  8.0420391016e+01  1.227800e-13 9.
        5     1     3     0   101     0  1.4194866867e+02  2.4057619408e+01 -1.0935748440e+02  1.8085987113e+02  4.8000000000e+00 0. 9.
      -24     2     4     0     0     0 -1.2307927878e+02  7.0307347846e+01 -1.5167382492e+02  2.2259591930e+02  8.0326596463e+01  1.831217e-13 9.
       -5     1     4     0     0   103 -2.4061873844e+02  2.4504911204e+01 -1.0714305096e+02  2.6457615412e+02  4.8000000000e+00 0. 9.
       -3     1     5     0     0   104  7.8505517475e+01 -5.0067739421e+01 -6.0837603519e+01  1.1122661016e+02  5.0000000000e-01 0. 9.
        2     1     5     0   104     0  1.4324383107e+02 -6.8802139037e+01 -2.5553343010e+02  3.0091522440e+02  3.3000000000e-01 0. 9.
        1     1     7     0   105     0 -5.1230982616e+01 -1.1343447883e+01 -3.4908845276e+01  6.3023993591e+01  3.3000000000e-01 0. 9.
       -2     1     7     0     0   105 -7.1848296162e+01  8.1650795729e+01 -1.1676497964e+02  1.5957192571e+02  3.3000000000e-01 0. 9.
#pdf   21   21  3.043295e-02  1.357476e-01  4.127353e+02  3.057797e+00  4.772513e-01
</event>
<event>
    12  9999  1.000000e+00  2.002025e+02  7.887824e-03  1.057221e-01
       -2    -1     0     0     0   101  0.0000000000e+00  0.0000000000e+00  1.4133152688e+01  1.4133152688e+01  0.0000000000e+00 0. 9.
        2    -1     0     0   102     0  0.0000000000e+00  0.0000000000e+00 -2.8911633385e+03  2.8911633385e+03  0.0000000000e+00 0. 9.
       -6     2     1     2     0   101  8.1564811647e+01 -6.7643283898e+01 -1.6365590834e+03  1.6487132938e+03  1.6941505061e+02  8.473261e-14 9.
        6     2     1     2   102     0 -8.1564811647e+01  6.7643283898e+01 -1.2404711024e+03  1.2565831974e+03  1.7030661659e+02  7.060071e-14 9.
      -24     2     3     0     0     0 -3.1762680604e-01 -8.1421402071e+01 -8.1958952960e+02  8.2752095209e+02  8.0214609104e+01  7.496583e-14 9.
       -5     1     3     0     0   101  8.1882438453e+01  1.3778118174e+01 -8.1696955377e+02  8.2119234170e+02  4.8000000000e+00 0. 9.
       24     2     4     0     0     0 -8.0555399988e+01  4.4199255298e+01 -1.2167693789e+03  1.2228867126e+03  8.0507414479e+01  1.496982e-13 9.
        5     1     4     0   102     0 -1.0094116594e+00  2.3444028600e+01 -2.3701723509e+01  3.3696484775e+01  4.8000000000e+00 0. 9.
        1     1     5     0   103     0 -1.4739403125e+01 -3.6222032091e-01 -3.8009601332e+02  3.8038200463e+02  3.3000000000e-01 0. 9.
       -2     1     5     0     0   103  1.4421776319e+01 -8.1059181750e+01 -4.3949351628e+02  4.4713894746e+02  3.3000000000e-01 0. 9.
      -15     1     7     0     0     0 -2.7240427840e+01  4.8266371760e+01 -8.9403028534e+02  8.9574828593e+02  1.7768200000e+00  3.096589e-02 9.
       16     1     7     0     0     0 -5.3314972148e+01 -4.0671164625e+00 -3.2273909355e+02  3.2713842666e+02  0.0000000000e+00 0. 9.
#pdf   -2    2  2.174331e-03  4.447944e-01  1.998247e+02  1.147075e+00  1.405514e-01
</event>
<event>
    12  9999  1.000000e+00  2.182671e+02  7.895625e-03  1.046256e-01
       -1    -1     0     0     0   101  0.0000000000e+00  0.0000000000e+00  3.4296285196e+01  3.4296285196e+01  0.0000000000e+00 0. 9.
        1    -1     0     0   102     0  0.0000000000e+00  0.0000000000e+00 -1.5123018253e+03  1.5123018253e+03  0.0000000000e+00 0. 9.
       -6     2     1     2     0   101  7.8055481335e+01  1.1099375443e+02 -9.5838242249e+02  9.8282706549e+02  1.7041097741e+02  1.112956e-13 9.
        6     2     1     2   102     0 -7.8055481335e+01 -1.1099375443e+02 -5.1962311764e+02  5.6377104503e+02  1.7151482486e+02  2.063732e-13 9.
      -24     2     3     0     0     0  8.1757044101e+01  1.1411060803e+02 -5.2466109387e+02  5.4905218465e+02  8.0520760818e+01  6.545630e-15 9.
       -5     1     3     0     0   101 -3.7015627656e+00 -3.1168536032e+00 -4.3372132862e+02  4.3377488084e+02  4.8000000000e+00 0. 9.
       24     2     4     0     0     0 -9.6860667049e+01 -7.9213938589e+01 -2.4713955827e+02  2.8875482400e+02  8.1514110652e+01  1.524150e-13 9.
        5     1     4     0   102     0  1.8805185714e+01 -3.1779815839e+01 -2.7248355937e+02  2.7501622103e+02  4.8000000000e+00 0. 9.
        1     1     5     0   103     0  2.4108924166e+01  8.6133139146e+01 -2.1558631276e+02  2.3340463798e+02  3.3000000000e-01 0. 9.
       -2     1     5     0     0   103  5.7648119935e+01  2.7977468886e+01 -3.0907478111e+02  3.1564754666e+02  3.3000000000e-01 0. 9.
       -1     1     7     0     0   104 -7.4062876009e+01 -7.5157328918e+01 -2.4341163199e+02  2.6529844549e+02  3.3000000000e-01 0. 9.
        2     1     7     0   104     0 -2.2797791041e+01 -4.0566096708e+00 -3.7279262764e+00  2.3456378508e+01  3.3000000000e-01 0. 9.
#pdf   -1    1  5.276352e-03  2.326618e-01  2.178352e+02  7.645780e-01  1.836219e-01
</event>
<event>
    12  9999  1.000000e+00  1.995996e+02  7.887552e-03  1.057609e-01
       21    -1     0     0   101   102  0.0000000000e+00  0.0000000000e+00  2.6595223192e+03  2.6595223192e+03  0.0000000000e+00 0. 9.
       21    -1     0     0   102   103  0.0000000000e+00  0.0000000000e+00 -1.7724333455e+01  1.7724333455e+01  0.0000000000e+00 0. 9.
        6     2     1     2   101     0  7.5228614387e+01  6.7869927613e+01  1.8392586235e+03  1.8498990121e+03  1.7025979881e+02  3.582181e-13 9.
       -6     2     1     2     0   103 -7.5228614387e+01 -6.7869927613e+01  8.0253936223e+02  8.2734764061e+02  1.7369231128e+02  4.296583e-13 9.
       24     2     3     0     0     0  7.1804859832e+01 -1.4815275005e+01  7.7593028700e+02  7.8334439269e+02  7.8646023475e+01  5.614823e-15 9.
        5     1     3     0   101     0  3.4237545549e+00  8.2685202618e+01  1.0633283365e+03  1.0665546194e+03  4.8000000000e+00 0. 9.
      -24     2     4     0     0     0 -2.2539191412e+01 -6.0979574475e+01  1.9440540666e+02  2.1687765758e+02  7.0823248777e+01  1.391401e-14 9.
       -5     1     4     0     0   103 -5.2689422975e+01 -6.8903531382e+00  6.0813395557e+02  6.1046998303e+02  4.8000000000e+00 0. 9.
      -13     1     5     0     0     0  7.3106044791e+01 -1.6951783613e+01  7.7700577655e+02  7.8062144776e+02  1.0566000000e-01  8.657594e+04 9.
       14     1     5     0     0     0 -1.3011849586e+00  2.1365086078e+00 -1.0754895474e+00  2.7229449305e+00  0.0000000000e+00 0. 9.
       13     1     7     0     0     0 -1.4970970940e+01 -2.6285905945e+01  1.7254932179e+02  1.7518093058e+02  1.0566000000e-01  1.781622e+05 9.
      -14     1     7     0     0     0 -7.5682204724e+00 -3.4693668530e+01  2.1856084861e+01  4.1696727001e+01  0.0000000000e+00 0. 9.
#pdf   21   21  4.091573e-01  2.726821e-03  1.981264e+02  3.095356e-02  2.023557e+01
</event>
<event>
    12  9999  1.000000e+00  3.339310e+02  7.934250e-03  9.954752e-02
       21    -1     0     0   101   102  0.0000000000e+00  0.0000000000e+00  4.4493966687e+02  4.4493966687e+02  0.0000000000e+00 0. 9.
       21    -1     0     0   102   103  0.0000000000e+00  0.0000000000e+00 -5.2246986902e+02  5.2246986902e+02  0.0000000000e+00 0. 9.
        6     2     1     2   101     0  2.7887744017e+02  5.5808333050e+01  3.1003021288e+02  4.5709478563e+02  1.7868887340e+02  3.477522e-13 9.
       -6     2     1     2     0   103 -2.7887744017e+02 -5.5808333050e+01 -3.8756041503e+02  5.1031475026e+02  1.7126258309e+02  1.935799e-13 9.
       24     2     3     0     0     0  1.2822581980e+02 -3.4215354846e+01  1.0317447893e+02  1.8577853147e+02  7.9095753884e+01  6.109293e-15 9.
        5     1     3     0   101     0  1.5065162036e+02  9.0023687896e+01  2.0685573395e+02  2.7131625416e+02  4.8000000000e+00 0. 9.
      -24     2     4     0     0     0 -7.9709438974e+01 -1.9892868759e+01 -7.2311004911e+01  1.3566418793e+02  8.0165887806e+01  1.891345e-14 9.
       -5     1     4     0     0   103 -1.9916800119e+02 -3.5915464291e+01 -3.1524941012e+02  3.7465056233e+02  4.8000000000e+00 0. 9.
       -1     1     5     0     0   104  9.2525425020e+01 -6.0499617602e+00  1.0523545862e+02  1.4025750234e+02  3.3000000000e-01 0. 9.
        2     1     5     0   104     0  3.5700394784e+01 -2.8165393086e+01 -2.0609796973e+00  4.5521029127e+01  3.3000000000e-01 0. 9.
        1     1     7     0   105     0 -4.9353606259e+01  2.2477098952e+01 -6.2283691106e+01  8.2585504212e+01  3.3000000000e-01 0. 9.
       -2     1     7     0     0   105 -3.0355832715e+01 -4.2369967711e+01 -1.0027313804e+01  5.3078683723e+01  3.3000000000e-01 0. 9.
#pdf   21   21  6.845226e-02  8.037998e-02  3.319911e+02  1.274880e+00  1.041258e+00
</event>
<event>
    12  9999  1.000000e+00  2.189324e+02  7.895900e-03  1.045874e-01
       21    -1     0     0   101   102  0.0000000000e+00  0.0000000000e+00  7.7283984793e+01  7.7283984793e+01  0.0000000000e+00 0. 9.
       21    -1     0     0   102   103  0.0000000000e+00  0.0000000000e+00 -9.3734727757e+02  9.3734727757e+02  0.0000000000e+00 0. 9.
        6     2     1     2   101     0 -1.0951088707e+02  9.9049700797e+01 -1.4480877433e+02  2.6867974927e+02  1.7151020066e+02  5.453219e-13 9.
       -6     2     1     2     0   103  1.0951088707e+02 -9.9049700797e+01 -7.1525451845e+02  7.4595151309e+02  1.5182607190e+02  1.702760e-14 9.
       24     2     3     0     0     0 -7.6409255838e+01  1.9403238989e+01 -1.5953405543e+01  1.1354747367e+02  8.0147723406e+01  4.401258e-13 9.
        5     1     3     0   101     0 -3.3101631234e+01  7.9646461808e+01 -1.2885536878e+02  1.5513227560e+02  4.8000000000e+00 0. 9.
      -24     2     4     0     0     0  1.0038141279e+02 -6.6174999370e+01 -3.4521314186e+02  3.7430954334e+02  8.0498213316e+01  2.051682e-13 9.
       -5     1     4     0     0   103  9.1294742857e+00 -3.2874701427e+01 -3.7004137659e+02  3.7164196975e+02  4.8000000000e+00 0. 9.
       -3     1     5     0     0   104 -6.8524431882e+01  4.5693404441e+01 -1.2475550416e+00  8.2372880050e+01  5.0000000000e-01 0. 9.
        4     1     5     0   104     0 -7.8848239556e+00 -2.6290165452e+01 -1.4705850502e+01  3.1174593619e+01  1.5000000000e+00 0. 9.
       11     1     7     0     0     0  8.2418336892e+01 -1.1144326813e+01 -2.4304978875e+02  2.5688553499e+02  5.1100000000e-04 0. 9.
      -12     1     7     0     0     0  1.7963075894e+01 -5.5030672557e+01 -1.0216335311e+02  1.1742400835e+02  0.0000000000e+00 0. 9.
#pdf   21   21  1.188984e-02  1.442073e-01  2.117891e+02  7.095374e+00  4.718617e-01
</event>
<event>
    12  9999  1.000000e+00  2.420538e+02  7.904987e-03  1.033425e-01
       21    -1     0     0   101   102  0.0000000000e+00  0.0000000000e+00  2.8011707809e+01  2.8011707809e+01  0.0000000000e+00 0. 9.
       21    -1     0     0   103   101  0.0000000000e+00  0.0000000000e+00 -2.1707439673e+03  2.1707439673e+03  0.0000000000e+00 0. 9.
        6     2     1     2   103     0  2.9927320196e+01  1.6881071057e+02 -1.2824424197e+03  1.3051377677e+03  1.7126976534e+02  6.434006e-14 9.
       -6     2     1     2     0   102 -2.9927320196e+01 -1.6881071057e+02 -8.6028983980e+02  8.9361790735e+02  1.7047479394e+02  1.650821e-14 9.
       24     2     3     0     0     0 -3.6214145397e+01  1.3714270378e+02 -1.0091976752e+03  1.0221832016e+03  7.9113617411e+01  1.172265e-14 9.
        5     1     3     0   103     0  6.6141465593e+01  3.1668006788e+01 -2.7324474446e+02  2.8295456614e+02  4.8000000000e+00 0. 9.
      -24     2     4     0     0     0  3.0070833217e+01 -1.6971548712e+02 -6.2949493119e+02  6.5510181381e+02  5.6452781054e+01  5.972306e-14 9.
       -5     1     4     0     0   102 -5.9998153412e+01  9.0477655265e-01 -2.3079490861e+02  2.3851609354e+02  4.8000000000e+00 0. 9.
       -3     1     5     0     0   104 -1.8299631744e+01  6.6610074339e+01 -7.4329408509e+02  7.4649723741e+02  5.0000000000e-01 0. 9.
        4     1     5     0   104     0 -1.7914513653e+01  7.0532629444e+01 -2.6590359012e+02  2.7568596420e+02  1.5000000000e+00 0. 9.
       11     1     7     0     0     0 -1.3082890881e+01 -7.8362665712e+01 -2.4531760625e+02  2.5786158564e+02  5.1100000000e-04 0. 9.
      -12     1     7     0     0     0  4.3153724097e+01 -9.1352821412e+01 -3.8417732494e+02  3.9724022817e+02  0.0000000000e+00 0. 9.
#pdf   21   21  4.309494e-03  3.339606e-01  2.417734e+02  1.503923e+01  6.813672e-02
</event>
<event>
    12  9999  1.000000e+00  1.828483e+02  7.879652e-03  1.068984e-01
       21    -1     0     0   101   102  0.0000000000e+00  0.0000000000e+00  5.0209007286e+02  5.0209007286e+02  0.0000000000e+00 0. 9.
       21    -1     0     0   102   103  0.0000000000e+00  0.0000000000e+00 -8.4810478220e+01  8.4810478220e+01  0.0000000000e+00 0. 9.
        6     2     1     2   101     0  6.4628619207e+01 -1.5309092364e+01  3.4321245579e+02  3.8813857512e+02  1.6865804740e+02  1.633495e-13 9.
       -6     2     1     2     0   103 -6.4628619207e+01  1.5309092364e+01  7.4067138846e+01  1.9876197596e+02  1.7207311034e+02  1.654595e-13 9.
       24     2     3     0     0     0 -4.3760317023e+00 -5.5518619334e+01  1.4152943754e+02  1.7116501046e+02  7.8520139909e+01  2.281223e-14 9.
        5     1     3     0   101     0  6.9004650910e+01  4.0209526970e+01  2.0168301826e+02  2.1697356466e+02  4.8000000000e+00 0. 9.
      -24     2     4     0     0     0 -9.3170906303e+01  3.7212474920e+01  1.6239334206e+01  1.3048668534e+02  8.1838090180e+01  1.674759e-13 9.
       -5     1     4     0     0   103  2.8542287095e+01 -2.1903382556e+01  5.7827804640e+01  6.8275290622e+01  4.8000000000e+00 0. 9.
       -1     1     5     0     0   104  1.3720106934e+01  3.0297614412e+00 -2.8300163910e+00  1.4336620294e+01  3.3000000000e-01 0. 9.
        2     1     5     0   104     0 -1.8096138636e+01 -5.8548380775e+01  1.4435945393e+02  1.5682839017e+02  3.3000000000e-01 0. 9.
        3     1     7     0   105     0 -9.6974268856e+01  1.1868973485e+01  2.8871450704e+01  1.0187586573e+02  5.0000000000e-01 0. 9.
       -4     1     7     0     0   105  3.8033625531e+00  2.5343501435e+01 -1.2632116498e+01  2.8610819612e+01  1.5000000000e+00 0. 9.
#pdf   21   21  7.724463e-02  1.304777e-02  1.812643e+02  1.155729e+00  6.587791e+00
</event>
<event>
    12  9999  1.000000e+00  1.906728e+02  7.883426e-03  1.063516e-01
       21    -1     0     0   101   102  0.0000000000e+00  0.0000000000e+00  1.9941979551e+02  1.9941979551e+02  0.0000000000e+00 0. 9.
       21    -1     0     0   102   103  0.0000000000e+00  0.0000000000e+00 -1.8763163780e+02  1.8763163780e+02  0.0000000000e+00 0. 9.
        6     2     1     2   101     0 -3.6531082074e+01  7.5333969376e+01 -2.6697883302e+01  1.9258568832e+02  1.7136727655e+02  1.964635e-14 9.
       -6     2     1     2     0   103  3.6531082074e+01 -7.5333969376e+01  3.8486041005e+01  1.9446574499e+02  1.7124842693e+02  1.199950e-13 9.
       24     2     3     0     0     0 -2.1563853186e+01  3.6045517407e+01 -8.2660282938e+01  1.2242565289e+02  7.9943974256e+01  2.402095e-13 9.
        5     1     3     0   101     0 -1.4967228888e+01  3.9288451969e+01  5.5962399636e+01  7.0160035431e+01  4.8000000000e+00 0. 9.
      -24     2     4     0     0     0  3.9287458389e+01  9.7963933775e-01 -2.7510538997e+01  9.3421432649e+01  8.0164020873e+01  8.031587e-15 9.
       -5     1     4     0     0   103 -2.7563763146e+00 -7.6313608714e+01  6.5996580002e+01  1.0104431235e+02  4.8000000000e+00 0. 9.
       -3     1     5     0     0   104  1.2343354694e+01 -1.7723162713e+01 -4.1192512710e+01  4.6513890453e+01  5.0000000000e-01 0. 9.
        4     1     5     0   104     0 -3.3907207880e+01  5.3768680121e+01 -4.1467770227e+01  7.5911762434e+01  1.5000000000e+00 0. 9.
        3     1     7     0   105     0  5.5773378462e+01 -9.8112327677e+00  3.4004856446e+00  5.6733969861e+01  5.0000000000e-01 0. 9.
       -4     1     7     0     0   105 -1.6485920073e+01  1.0790872105e+01 -3.0911024642e+01  3.6687462789e+01  1.5000000000e+00 0. 9.
#pdf   21   21  3.067997e-02  2.886641e-02  1.906194e+02  3.130761e+00  3.316666e+00
</event>
<event>
    12  9999  1.000000e+00  1.893248e+02  7.882787e-03  1.064438e-01
       21    -1     0     0   101   102  0.0000000000e+00  0.0000000000e+00  4.6357875941e+02  4.6357875941e+02  0.0000000000e+00 0. 9.
       21    -1     0     0   102   103  0.0000000000e+00  0.0000000000e+00 -2.1904271246e+02  2.1904271246e+02  0.0000000000e+00 0. 9.
        6     2     1     2   101     0 -8.2117416357e+01  1.1046591497e+01  3.9695676920e+02  4.4007866561e+02  1.7096566340e+02  6.648382e-14 9.
       -6     2     1     2     0   103  8.2117416357e+01 -1.1046591497e+01 -1.5242072225e+02  2.4254280626e+02  1.6949819776e+02  1.125223e-13 9.
       24     2     3     0     0     0 -1.0413287703e+02  1.7611407894e+01  2.0441405704e+02  2.4611085042e+02  8.7359179341e+01  5.450309e-13 9.
        5     1     3     0   101     0  2.2015460669e+01 -6.5648163977e+00  1.9254271216e+02  1.9396781519e+02  4.8000000000e+00 0. 9.
      -24     2     4     0     0     0  2.5804964593e+01  5.5878382670e+01 -7.9370403616e+01  1.2848390286e+02  8.0125916389e+01  8.476162e-14 9.
       -5     1     4     0     0   103  5.6312451764e+01 -6.6924974166e+01 -7.3050318634e+01  1.1405890339e+02  4.8000000000e+00 0. 9.
      -15     1     5     0     0     0  8.5675718777e+00  1.7349445038e+01  5.9117557710e+01  6.2229006499e+01  1.7768200000e+00  3.734068e-03 9.
       16     1     5     0     0     0 -1.1270044890e+02  2.6196285677e-01  1.4529649933e+02  1.8388184393e+02  0.0000000000e+00 0. 9.
       13     1     7     0     0     0 -1.1557121125e+01  2.8744244387e+01  5.8775464410e+00  3.1533400551e+01  1.0566000000e-01  7.692395e+05 9.
      -14     1     7     0     0     0  3.7362085718e+01  2.7134138282e+01 -8.5247950057e+01  9.6950502312e+01  0.0000000000e+00 0. 9.
#pdf   21   21  7.131981e-02  3.369888e-02  1.886662e+02  1.270294e+00  2.861084e+00
</event>
<event>
    12  9999  1.000000e+00  2.700559e+02  7.914918e-03  1.020190e-01
       21    -1     0     0   101   102  0.0000000000e+00  0.0000000000e+00  1.4547077357e+03  1.4547077357e+03  0.0000000000e+00 0. 9.
       21    -1     0     0   102   103  0.0000000000e+00  0.0000000000e+00 -5.2071580032e+01  5.2071580032e+01  0.0000000000e+00 0. 9.
        6     2     1     2   101     0  1.8567841534e+02  9.5943614689e+01  8.4615148943e+02  8.8814140369e+02  1.7070781694e+02  1.626153e-14 9.
       -6     2     1     2     0   103 -1.8567841534e+02 -9.5943614689e+01  5.5648466619e+02  6.1863791199e+02  1.7133601878e+02  6.579756e-14 9.
       24     2     3     0     0     0  4.5698763404e+01  7.5035129896e+01  4.9670953788e+02  5.1109474187e+02  8.2333604589e+01  8.145578e-14 9.
        5     1     3     0   101     0  1.3997965193e+02  2.0908484793e+01  3.4944195155e+02  3.7704666183e+02  4.8000000000e+00 0. 9.
      -24     2     4     0     0     0 -3.5077791034e+01 -5.7225789267e+01  1.4576147073e+02  1.7943841139e+02  8.0290066324e+01  1.432159e-13 9.
       -5     1     4     0     0   103 -1.5060062430e+02 -3.8717825423e+01  4.1072319546e+02  4.3919950061e+02  4.8000000000e+00 0. 9.
      -15     1     5     0     0     0  4.1378948630e+00  5.0277771309e+01  1.0604584288e+02  1.1744724068e+02  1.7768200000e+00  1.344804e-01 9.
       16     1     5     0     0     0  4.1560868541e+01  2.4757358587e+01  3.9066369500e+02  3.9364750118e+02  0.0000000000e+00 0. 9.
        1     1     7     0   104     0 -3.9445333942e+00 -6.9494078045e+01  1.1224181305e+02  1.3207316049e+02  3.3000000000e-01 0. 9.
       -2     1     7     0     0   104 -3.1133257639e+01  1.2268288779e+01  3.3519657689e+01  4.7365250895e+01  3.3000000000e-01 0. 9.
#pdf   21   21  2.238012e-01  8.011012e-03  2.698570e+02  2.001066e-01  9.644514e+00
</event>
<event>
    12  9999  1.000000e+00  1.764132e+02  7.876428e-03  1.073706e-01
       21    -1     0     0   101   102  0.0000000000e+00  0.0000000000e+00  4.9165431773e+01  4.9165431773e+01  0.0000000000e+00 0. 9.
       21    -1     0     0   103   101  0.0000000000e+00  0.0000000000e+00 -6.3377654043e+02  6.3377654043e+02  0.0000000000e+00 0. 9.
        6     2     1     2   103     0  3.9029421812e-01 -3.6789830863e+01 -3.0457824898e+02  3.5207365151e+02  1.7272609053e+02  1.270236e-13 9.
       -6     2     1     2     0   102 -3.9029421812e-01  3.6789830863e+01 -2.8003285967e+02  3.3086832069e+02  1.7234209919e+02  1.193051e-14 9.
       24     2     3     0     0     0 -5.6898328323e+01 -5.4297136056e+01 -2.3107946766e+02  2.5713365539e+02  8.0835620924e+01  6.976285e-14 9.
        5     1     3     0   103     0  5.7288622542e+01  1.7507305193e+01 -7.3498781320e+01  9.4939996120e+01  4.8000000000e+00 0. 9.
      -24     2     4     0     0     0 -2.8062643498e+00  6.6838975053e+01 -2.8233276287e+02  3.0025594520e+02  7.7243251691e+01  1.744721e-13 9.
       -5     1     4     0     0   102  2.4159701317e+00 -3.0049144190e+01  2.2999031998e+00  3.0612375487e+01  4.8000000000e+00 0. 9.
      -15     1     5     0     0     0  1.5399901417e+01  4.4813165140e+00 -1.5934263886e+01  2.2678117564e+01  1.7768200000e+00  1.268730e-01 9.
       16     1     5     0     0     0 -7.2298229740e+01 -5.8778452570e+01 -2.1514520378e+02  2.3445553783e+02  0.0000000000e+00 0. 9.
       11     1     7     0     0     0  2.6670021678e+01  7.7829412576e+00 -1.4798481457e+02  1.5057014835e+02  5.1100000000e-04 0. 9.
      -12     1     7     0     0     0 -2.9476286027e+01  5.9056033796e+01 -1.3434794830e+02  1.4968579685e+02  0.0000000000e+00 0. 9.
#pdf   21   21  7.563913e-03  9.750408e-02  1.762255e+02  9.982760e+00  8.574061e-01
</event>
<event>
    12  9999  1.000000e+00  2.116312e+02  7.892835e-03  1.050148e-01
       21    -1     0     0   101   102  0.0000000000e+00  0.0000000000e+00  4.9090922249e+02  4.9090922249e+02  0.0000000000e+00 0. 9.
       21    -1     0     0   102   103  0.0000000000e+00  0.0000000000e+00 -1.0025972989e+02  1.0025972989e+02  0.0000000000e+00 0. 9.
        6     2     1     2   101     0  8.3877502590e+01  4.6342989056e+01  2.5843293193e+02  3.2059838472e+02  1.6374564392e+02  1.623034e-14 9.
       -6     2     1     2     0   103 -8.3877502590e+01 -4.6342989056e+01  1.3221656067e+02  2.7057056766e+02  2.1574082852e+02  1.699015e-13 9.
       24     2     3     0     0     0  2.4266703289e+01 -1.4979370431e+01  1.9850211412e+02  2.1605833455e+02  8.0404354295e+01  3.987843e-15 9.
        5     1     3     0   101     0  5.9610799300e+01  6.1322359487e+01  5.9930817809e+01  1.0454005017e+02  4.8000000000e+00 0. 9.
      -24     2     4     0     0     0 -2.4846407227e+01 -1.1031763552e+02  1.1688065227e+02  1.8205132853e+02  8.1818547309e+01  4.587835e-14 9.
       -5     1     4     0     0   103 -5.9031095363e+01  6.3974646467e+01  1.5335908405e+01  8.8519239135e+01  4.8000000000e+00 0. 9.
       -3     1     5     0     0   104  4.1035957128e-01  5.0600414731e+00 -6.7437416804e+00  8.4557948497e+00  5.0000000000e-01 0. 9.
        4     1     5     0   104     0  2.3856343718e+01 -2.0039411904e+01  2.0524585580e+02  2.0760253970e+02  1.5000000000e+00 0. 9.
        3     1     7     0   105     0  9.9687923296e+00  9.0085693339e+00  2.1529607120e+01  2.5383166168e+01  5.0000000000e-01 0. 9.
       -4     1     7     0     0   105 -3.4815199556e+01 -1.1932620486e+02  9.5351045147e+01  1.5666816236e+02  1.5000000000e+00 0. 9.
#pdf   21   21  7.552450e-02  1.542457e-02  1.897254e+02  1.183812e+00  5.751329e+00
</event>
<event>
    12  9999  1.000000e+00  2.011154e+02  7.888234e-03  1.056638e-01
       21    -1     0     0   101   102  0.0000000000e+00  0.0000000000e+00  2.6313939802e+02  2.6313939802e+02  0.0000000000e+00 0. 9.
       21    -1     0     0   103   101  0.0000000000e+00  0.0000000000e+00 -2.0150665757e+02  2.0150665757e+02  0.0000000000e+00 0. 9.
        6     2     1     2   103     0  7.7299128452e+01  6.9502733558e+01  1.4394813121e+02  2.4721913389e+02  1.7201875029e+02  4.596885e-14 9.
       -6     2     1     2     0   102 -7.7299128452e+01 -6.9502733558e+01 -8.2315390754e+01  2.1742692170e+02  1.7231615564e+02  2.474542e-14 9.
       24     2     3     0     0     0 -1.0083755089e+01 -4.9713957818e+00  9.1834252803e+01  1.2104044869e+02  7.8043983353e+01  9.663508e-15 9.
        5     1     3     0   103     0  8.7382883541e+01  7.4474129340e+01  5.2113878408e+01  1.2617868520e+02  4.8000000000e+00 0. 9.
      -24     2     4     0     0     0 -3.0424153222e+01 -5.3796600421e+01  2.0309866546e+01  1.0341407437e+02  8.0388287592e+01  2.514023e-15 9.
       -5     1     4     0     0   102 -4.6874975230e+01 -1.5706133137e+01 -1.0262525730e+02  1.1401284733e+02  4.8000000000e+00 0. 9.
       -1     1     5     0     0   104  3.2661973808e+01  7.2147415399e+00  3.0321139504e+01  4.5147950444e+01  3.3000000000e-01 0. 9.
        2     1     5     0   104     0 -4.2745728897e+01 -1.2186137322e+01  6.1513113299e+01  7.5892498242e+01  3.3000000000e-01 0. 9.
        1     1     7     0   105     0 -6.2977338234e+00 -2.9963555513e+01 -2.9917150493e+01  4.2809121738e+01  3.3000000000e-01 0. 9.
       -2     1     7     0     0   105 -2.4126419398e+01 -2.3833044908e+01  5.0227017039e+01  6.0604952630e+01  3.3000000000e-01 0. 9.
#pdf   21   21  4.048298e-02  3.100102e-02  2.009881e+02  2.374853e+00  3.093428e+00
</event>
<event>
    12  9999  1.000000e+00  1.887861e+02  7.882530e-03  1.064808e-01
       21    -1     0     0   101   102  0.0000000000e+00  0.0000000000e+00  2.0459167475e+02  2.0459167475e+02  0.0000000000e+00 0. 9.
       21    -1     0     0   102   103  0.0000000000e+00  0.0000000000e+00 -3.8459728027e+02  3.8459728027e+02  0.0000000000e+00 0. 9.
        6     2     1     2   101     0 -6.4848490380e+01 -4.6313213719e+01  1.2794417988e+02  2.2784271190e+02  1.7085768267e+02  2.430314e-13 9.
       -6     2     1     2     0   103  6.4848490380e+01  4.6313213719e+01 -3.0794978540e+02  3.6134624313e+02  1.7142869254e+02  4.196186e-13 9.
       24     2     3     0     0     0 -1.2923107654e+01 -8.2378813734e+00 -2.2642735274e-01  8.4327134819e+01  8.2922524060e+01  7.663391e-14 9.
        5     1     3     0   101     0 -5.1925382726e+01 -3.8075332346e+01  1.2817060724e+02  1.4351557708e+02  4.8000000000e+00 0. 9.
      -24     2     4     0     0     0  3.5350836805e+01  9.6667732732e+01 -2.0809188227e+02  2.4558644886e+02  8.0100812627e+01  4.833911e-14 9.
       -5     1     4     0     0   103  2.9497653575e+01 -5.0354519012e+01 -9.9857903123e+01  1.1575979426e+02  4.8000000000e+00 0. 9.
      -11     1     5     0     0     0 -1.9998378291e+01 -4.1975795838e+01 -1.1789538756e+01  4.7967653630e+01  5.1100000000e-04 0. 9.
       12     1     5     0     0     0  7.0752706366e+00  3.3737914464e+01  1.1563111403e+01  3.6359481188e+01  0.0000000000e+00 0. 9.
       13     1     7     0     0     0  5.1474835848e+01  9.2874806965e+01 -1.4118440695e+02  1.7665909663e+02  1.0566000000e-01  7.889184e+05 9.
      -14     1     7     0     0     0 -1.6123999043e+01  3.7929257668e+00 -6.6907475327e+01  6.8927352232e+01  0.0000000000e+00 0. 9.
#pdf   21   21  3.147564e-02  5.916881e-02  1.885274e+02  3.056305e+00  1.582227e+00
</event>
<event>
    12  9999  1.000000e+00  1.728668e+02  7.874602e-03  1.076401e-01
       21    -1     0     0   101   102  0.0000000000e+00  0.0000000000e+00  1.3048846718e+02  1.3048846718e+02  0.0000000000e+00 0. 9.
       21    -1     0     0   102   103  0.0000000000e+00  0.0000000000e+00 -2.3592403674e+02  2.3592403674e+02  0.0000000000e+00 0. 9.
        6     2     1     2   101     0  8.5578917097e+00  2.1815339884e+01 -2.1353446277e+01  1.7418954755e+02  1.7128012798e+02  1.205455e-14 9.
       -6     2     1     2     0   103 -8.5578917097e+00 -2.1815339884e+01 -8.4082123275e+01  1.9222295637e+02  1.7126212348e+02  1.288576e-13 9.
       24     2     3     0     0     0  3.0159465729e+00  3.7222942025e+00  5.5312715644e+01  9.5076894693e+01  7.7182692262e+01  9.137404e-14 9.
        5     1     3     0   101     0  5.5419451368e+00  1.8093045682e+01 -7.6666161921e+01  7.9112652854e+01  4.8000000000e+00 0. 9.
      -24     2     4     0     0     0  5.1871812118e+01 -4.6556753503e+01 -4.6723488627e+01  1.1683997265e+02  8.1303620028e+01  5.174468e-14 9.
       -5     1     4     0     0   103 -6.0429703828e+01  2.4741413619e+01 -3.7358634649e+01  7.5382983726e+01  4.8000000000e+00 0. 9.
      -11     1     5     0     0     0 -1.1743606010e+01  2.6078599144e+01  6.1284981770e+01  6.7630278768e+01  5.1100000000e-04 0. 9.
       12     1     5     0     0     0  1.4759552583e+01 -2.2356304941e+01 -5.9722661262e+00  2.7446615925e+01  0.0000000000e+00 0. 9.
        1     1     7     0   104     0  1.0584587451e+01 -2.3485101300e+00  2.2459167738e+01  2.4941373395e+01  3.3000000000e-01 0. 9.
       -2     1     7     0     0   104  4.1287224666e+01 -4.4208243373e+01 -6.9182656365e+01  9.1898599252e+01  3.3000000000e-01 0. 9.
#pdf   21   21  2.007515e-02  3.629601e-02  1.728579e+02  4.609429e+00  2.669651e+00
</event>
<event>
    12  9999  1.000000e+00  3.288453e+02  7.932850e-03  9.972210e-02
       21    -1     0     0   101   102  0.0000000000e+00  0.0000000000e+00  1.9940619922e+02  1.9940619922e+02  0.0000000000e+00 0. 9.
       21    -1     0     0   102   103  0.0000000000e+00  0.0000000000e+00 -5.8262929130e+02  5.8262929130e+02  0.0000000000e+00 0. 9.
        6     2     1     2   101     0 -2.7580351999e+02 -5.1336969600e+01 -8.8744979767e+01  3.4061092238e+02  1.7157232564e+02  3.619031e-14 9.
       -6     2     1     2     0   103  2.7580351999e+02  5.1336969600e+01 -2.9447811231e+02  4.4142456814e+02  1.7156696838e+02  5.191171e-15 9.
       24     2     3     0     0     0 -4.4295875324e+01 -1.1626893480e+01 -1.5221514828e+01  9.4437366569e+01  8.1175196138e+01  7.751911e-14 9.
        5     1     3     0   101     0 -2.3150764467e+02 -3.9710076120e+01 -7.3523464938e+01  2.4617355581e+02  4.8000000000e+00 0. 9.
      -24     2     4     0     0     0  1.7384385118e+02  5.7441931184e+01 -2.4795102677e+02  3.2908199247e+02  1.1529954917e+02  4.121852e-14 9.
       -5     1     4     0     0   103  1.0195966881e+02 -6.1049615844e+00 -4.6527085540e+01  1.1234257567e+02  4.8000000000e+00 0. 9.
      -15     1     5     0     0     0 -6.5384706138e+01  2.8516207074e+00 -1.9908456079e+01  6.8430952428e+01  1.7768200000e+00  1.603079e-01 9.
       16     1     5     0     0     0  2.1088830814e+01 -1.4478514187e+01  4.6869412502e+00  2.6006414141e+01  0.0000000000e+00 0. 9.
        1     1     7     0   104     0  6.8143115325e+01 -3.4022950590e+01 -9.7324909964e+01  1.2358516227e+02  3.3000000000e-01 0. 9.
       -4     1     7     0     0   104  1.0570073586e+02  9.1464881774e+01 -1.5062611680e+02  2.0549683020e+02  1.5000000000e+00 0. 9.
#pdf   21   21  3.067788e-02  8.963528e-02  3.288439e+02  3.062337e+00  9.024359e-01
</event>
<event>
    12  9999  1.000000e+00  1.908422e+02  7.883506e-03  1.063400e-01
       21    -1     0     0   101   102  0.0000000000e+00  0.0000000000e+00  3.8782141399e+01  3.8782141399e+01  0.0000000000e+00 0. 9.
       21    -1     0     0   102   103  0.0000000000e+00  0.0000000000e+00 -1.0365460499e+03  1.0365460499e+03  0.0000000000e+00 0. 9.
        6     2     1     2   101     0  8.0187844006e+01  2.5015117480e+01 -6.6375306545e+02  6.9064693119e+02  1.7137445914e+02  1.570865e-13 9.
       -6     2     1     2     0   103 -8.0187844006e+01 -2.5015117480e+01 -3.3401084304e+02  3.8468126010e+02  1.7134929872e+02  2.063547e-15 9.
       24     2     3     0     0     0  5.6331430817e+01  2.8339618674e+01 -6.5707890000e+02  6.6519569855e+02  8.2196547750e+01  1.560447e-13 9.
        5     1     3     0   101     0  2.3856413189e+01 -3.3245011946e+00 -6.6741654460e+00  2.5451232639e+01  4.8000000000e+00 0. 9.
      -24     2     4     0     0     0 -2.5017552506e+01 -7.6630632449e+01 -1.7418148580e+02  2.0782994999e+02  7.9724314702e+01  1.071887e-13 9.
       -5     1     4     0     0   103 -5.5170291500e+01  5.1615514969e+01 -1.5982935725e+02  1.7685131011e+02  4.8000000000e+00 0. 9.
       -3     1     5     0     0   104  5.0248334198e+01  5.5678626360e+01 -4.4617263805e+02  4.5243262202e+02  5.0000000000e-01 0. 9.
        4     1     5     0   104     0  6.0830966191e+00 -2.7339007685e+01 -2.1090626195e+02  2.1276307653e+02  1.5000000000e+00 0. 9.
       13     1     7     0     0     0 -3.8661618460e+01 -3.4691147020e+01 -1.4727545867e+02  1.5616743679e+02  1.0566000000e-01  1.298968e+06 9.
      -14     1     7     0     0     0  1.3644065954e+01 -4.1939485429e+01 -2.6906027122e+01  5.1662513192e+01  0.0000000000e+00 0. 9.
#pdf   21   21  5.966483e-03  1.594686e-01  1.908309e+02  1.187459e+01  4.055984e-01
</event>
<event>
    12  9999  1.000000e+00  2.178088e+02  7.895435e-03  1.046520e-01
       -2    -1     0     0     0   101  0.0000000000e+00  0.0000000000e+00  4.9972697128e+01  4.9972697128e+01  0.0000000000e+00 0. 9.
        2    -1     0     0   102     0  0.0000000000e+00  0.0000000000e+00 -1.4671531998e+03  1.4671531998e+03  0.0000000000e+00 0. 9.
       -6     2     1     2     0   101 -1.0728444731e+02  8.1604595495e+01 -2.5795997353e+02  3.3762267103e+02  1.7110364523e+02  2.638826e-14 9.
        6     2     1     2   102     0  1.0728444731e+02 -8.1604595495e+01 -1.1592205291e+03  1.1795032259e+03  1.7107414205e+02  1.039459e-13 9.
      -24     2     3     0     0     0 -2.7679708790e+01  4.6958501797e+01 -2.2406663064e+02  2.4430030021e+02  8.0656770002e+01  2.488342e-14 9.
       -5     1     3     0     0   101 -7.9604738519e+01  3.4646093698e+01 -3.3893342891e+01  9.3322370821e+01  4.8000000000e+00 0. 9.
       24     2     4     0     0     0  7.3250876953e+01 -7.6064809732e+01 -4.4075273930e+02  4.6019245983e+02  7.9765761020e+01  6.334159e-14 9.
        5     1     4     0   102     0  3.4033570356e+01 -5.5397857632e+00 -7.1846778984e+02  7.1931076607e+02  4.8000000000e+00 0. 9.
       13     1     5     0     0     0  1.2119683526e+01  2.5183577048e+01 -1.7872427361e+01  3.3174298870e+01  1.0566000000e-01  1.171710e+06 9.
      -14     1     5     0     0     0 -3.9799392316e+01  2.1774924749e+01 -2.0619420327e+02  2.1112600134e+02  0.0000000000e+00 0. 9.
       -1     1     7     0     0   103  1.1755498682e+01 -6.9289797148e+01 -2.4672607984e+02  2.5654070849e+02  3.3000000000e-01 0. 9.
        2     1     7     0   103     0  6.1495378271e+01 -6.7750125840e+00 -1.9402665946e+02  2.0365175134e+02  3.3000000000e-01 0. 9.
#pdf   -2    2  7.688107e-03  2.257159e-01  2.177972e+02  6.095467e-01  4.086178e-01
</event>
<event>
    12  9999  1.000000e+00  1.927470e+02  7.884402e-03  1.062113e-01
       -1    -1     0     0     0   101  0.0000000000e+00  0.0000000000e+00  5.4928730587e+01  5.4928730587e+01  0.0000000000e+00 0. 9.
        1    -1     0     0   102     0  0.0000000000e+00  0.0000000000e+00 -6.9200540366e+02  6.9200540366e+02  0.0000000000e+00 0. 9.
       -6     2     1     2     0   101  2.1072078036e+01 -8.6508520383e+01 -3.7476697524e+02  4.2144734533e+02  1.7099655721e+02  4.124922e-14 9.
        6     2     1     2   102     0 -2.1072078036e+01  8.6508520383e+01 -2.6230969783e+02  3.2548678892e+02  1.7090206440e+02  1.615173e-13 9.
      -24     2     3     0     0     0 -4.7544984456e+01 -3.9478465537e+01 -2.5847466932e+02  2.7838418535e+02  8.2882598818e+01  5.512546e-14 9.
       -5     1     3     0     0   101  6.8617062492e+01 -4.7030054846e+01 -1.1629230593e+02  1.4306315997e+02  4.8000000000e+00 0. 9.
       24     2     4     0     0     0 -4.6482294387e+01  4.5862130165e+01 -6.7208021301e+01  1.2452531919e+02  8.2010354941e+01  1.440737e-13 9.
        5     1     4     0   102     0  2.5410216351e+01  4.0646390218e+01 -1.9510167652e+02  2.0096146973e+02  4.8000000000e+00 0. 9.
        1     1     5     0   103     0 -7.8521575753e+00 -5.4992984604e+01 -1.8789786066e+02  1.9593774439e+02  3.3000000000e-01 0. 9.
       -2     1     5     0     0   103 -3.9692826881e+01  1.5514519067e+01 -7.0576808658e+01  8.2446440967e+01  3.3000000000e-01 0. 9.
       -3     1     7     0     0   104 -1.4550730013e+01  6.5097754826e+01 -3.5504999193e+01  7.5566503128e+01  5.0000000000e-01 0. 9.
        4     1     7     0   104     0 -3.1931564374e+01 -1.9235624661e+01 -3.1703022108e+01  4.8958816062e+01  1.5000000000e+00 0. 9.
#pdf   -1    1  8.450574e-03  1.064624e-01  1.927051e+02  5.958028e-01  3.399040e-01
</event>
<event>
    12  9999  1.000000e+00  1.796369e+02  7.878057e-03  1.071314e-01
       21    -1     0     0   101   102  0.0000000000e+00  0.0000000000e+00  9.0459918860e+02  9.0459918860e+02  0.0000000000e+00 0. 9.
       21    -1     0     0   102   103  0.0000000000e+00  0.0000000000e+00 -5.8040053241e+01  5.8040053241e+01  0.0000000000e+00 0. 9.
        6     2     1     2   101     0  5.6573877538e+01 -9.1335123477e+00  7.2071420516e+02  7.4253896405e+02  1.6926642594e+02  1.046994e-14 9.
       -6     2     1     2     0   103 -5.6573877538e+01  9.1335123477e+00  1.2584493019e+02  2.2010027778e+02  1.7124006879e+02  4.446033e-14 9.
       24     2     3     0     0     0 -1.5852225652e+01 -9.5006055902e+00  1.8174001883e+02  1.9869901635e+02  7.8168472491e+01  7.530349e-14 9.
        5     1     3     0   101     0  7.2426103190e+01  3.6709324250e-01  5.3897418633e+02  5.4383994770e+02  4.8000000000e+00 0. 9.
      -24     2     4     0     0     0  1.0002904883e+01 -4.3551822068e+01  7.9758718045e+01  1.2337803954e+02  8.2848465442e+01  8.449579e-14 9.
       -5     1     4     0     0   103 -6.6576782421e+01  5.2685334415e+01  4.6086212150e+01  9.6722238241e+01  4.8000000000e+00 0. 9.
       -3     1     5     0     0   104 -5.8160808215e+00  4.4571687303e+00 -6.4165825683e+00  9.7527268529e+00  5.0000000000e-01 0. 9.
        4     1     5     0   104     0 -1.0036144831e+01 -1.3957774320e+01  1.8815660140e+02  1.8894628950e+02  1.5000000000e+00 0. 9.
        3     1     7     0   105     0 -1.4047766953e+01 -5.9557130143e+01  3.6233355596e+01  7.1116085135e+01  5.0000000000e-01 0. 9.
       -4     1     7     0     0   105  2.4050671835e+01  1.6005308075e+01  4.3525362449e+01  5.2261954409e+01  1.5000000000e+00 0. 9.
#pdf   21   21  1.391691e-01  8.929239e-03  1.787041e+02  5.107351e-01  8.831643e+00
</event>
<event>
    12  9999  1.000000e+00  1.850774e+02  7.880743e-03  1.067397e-01
       21    -1     0     0   101   102  0.0000000000e+00  0.0000000000e+00  3.3616528041e+01  3.3616528041e+01  0.0000000000e+00 0. 9.
       21    -1     0     0   102   103  0.0000000000e+00  0.0000000000e+00 -1.0190474344e+03  1.0190474344e+03  0.0000000000e+00 0. 9.
        6     2     1     2   101     0 -6.9023046514e+01  2.1568519563e+00 -4.9848197553e+02  5.3182778502e+02  1.7201069745e+02  4.913784e-13 9.
       -6     2     1     2     0   103  6.9023046514e+01 -2.1568519563e+00 -4.8694893080e+02  5.2083617739e+02  1.7141245435e+02  6.913594e-16 9.
       24     2     3     0     0     0 -1.3763423426e+01  3.9867041926e+01 -4.1433817653e+02  4.2422247251e+02  8.0683138245e+01  3.332659e-14 9.
        5     1     3     0   101     0 -5.5259623087e+01 -3.7710189970e+01 -8.4143799003e+01  1.0760531252e+02  4.8000000000e+00 0. 9.
      -24     2     4     0     0     0 -1.8434934195e+01  2.4596346547e+01 -1.6288689539e+02  1.8408125936e+02  8.0055869841e+01  3.315328e-14 9.
       -5     1     4     0     0   103  8.7457980709e+01 -2.6753198503e+01 -3.2406203542e+02  3.3675491803e+02  4.8000000000e+00 0. 9.
       -1     1     5     0     0   104 -4.1548685461e+01  3.7349991113e+00 -2.5887747636e+02  2.6221727660e+02  3.3000000000e-01 0. 9.
        2     1     5     0   104     0  2.7785262035e+01  3.6132042815e+01 -1.5546070017e+02  1.6200519591e+02  3.3000000000e-01 0. 9.
        3     1     7     0   105     0  3.1156845720e+01  1.6865878434e+01 -7.1984940455e+01  8.0232714917e+01  5.0000000000e-01 0. 9.
       -4     1     7     0     0   105 -4.9591779914e+01  7.7304681128e+00 -9.0901954930e+01  1.0384854444e+02  1.5000000000e+00 0. 9.
#pdf   21   21  5.171774e-03  1.567765e-01  1.848001e+02  1.311534e+01  4.193006e-01
</event>
<event>
    12  9999  1.000000e+00  2.045853e+02  7.889778e-03  1.054451e-01
       21    -1     0     0   101   102  0.0000000000e+00  0.0000000000e+00  9.9909449338e+02  9.9909449338e+02  0.0000000000e+00 0. 9.
       21    -1     0     0   102   103  0.0000000000e+00  0.0000000000e+00 -6.9149174804e+01  6.9149174804e+01  0.0000000000e+00 0. 9.
        6     2     1     2   101     0 -5.7195368497e+01  9.4435547066e+01  7.9863093078e+02  8.2412070721e+02  1.7080454834e+02  3.932505e-14 9.
       -6     2     1     2     0   103  5.7195368497e+01 -9.4435547066e+01  1.3131438780e+02  2.4412296097e+02  1.7367547007e+02  1.220496e-13 9.
       24     2     3     0     0     0  1.8981756316e+01  6.8154173437e+01  3.9482364141e+02  4.1232338827e+02  9.5496441116e+01  4.204037e-14 9.
        5     1     3     0   101     0 -7.6177124812e+01  2.6281373629e+01  4.0380728937e+02  4.1179731895e+02  4.8000000000e+00 0. 9.
      -24     2     4     0     0     0  3.6921472612e+01  1.5836725649e+01  3.8805103908e+01  9.8685645986e+01  8.1357382058e+01  8.189144e-14 9.
       -5     1     4     0     0   103  2.0273895885e+01 -1.1027227272e+02  9.2509283890e+01  1.4543731498e+02  4.8000000000e+00 0. 9.
       -3     1     5     0     0   104 -1.0842730635e+01  6.9037992246e+01  3.5870874585e+02  3.6545317556e+02  5.0000000000e-01 0. 9.
        4     1     5     0   104     0  2.9824486950e+01 -8.8381880847e-01  3.6114895565e+01  4.6870212707e+01  1.5000000000e+00 0. 9.
       13     1     7     0     0     0  3.5978385778e+01 -2.9703573402e+00  6.0193317360e+01  7.0189129392e+01  1.0566000000e-01  1.245957e+05 9.
      -14     1     7     0     0     0  9.4308683424e-01  1.8807082989e+01 -2.1388213452e+01  2.8496516595e+01  0.0000000000e+00 0. 9.
#pdf   21   21  1.537068e-01  1.063833e-02  2.033804e+02  4.274726e-01  7.740493e+00
</event>
<event>
    12  9999  1.000000e+00  2.277269e+02  7.899462e-03  1.040954e-01
       -2    -1     0     0     0   101  0.0000000000e+00  0.0000000000e+00  6.5281187614e+01  6.5281187614e+01  0.0000000000e+00 0. 9.
        2    -1     0     0   102     0  0.0000000000e+00  0.0000000000e+00 -9.7760770786e+02  9.7760770786e+02  0.0000000000e+00 0. 9.
       -6     2     1     2     0   101 -1.2171756235e+02 -8.9788739745e+01 -6.8184266731e+02  7.1885601391e+02  1.7019801118e+02  7.946312e-14 9.
        6     2     1     2   102     0  1.2171756235e+02  8.9788739745e+01 -2.3048385294e+02  3.2403288156e+02  1.7028599208e+02  1.057392e-13 9.
      -24     2     3     0     0     0 -6.0425302682e+00 -6.6440023187e+01 -3.9033092140e+02  4.0432777414e+02  8.1681894491e+01  1.646284e-13 9.
       -5     1     3     0     0   101 -1.1567503209e+02 -2.3348716558e+01 -2.9151174591e+02  3.1452823978e+02  4.8000000000e+00 0. 9.
       24     2     4     0     0     0  6.7533788518e+01  3.3529859161e+01 -3.7589991568e+01  1.1586942476e+02  7.9546540351e+01  3.021637e-14 9.
        5     1     4     0   102     0  5.4183773836e+01  5.6258880585e+01 -1.9289386137e+02  2.0816345680e+02  4.8000000000e+00 0. 9.
        1     1     5     0   103     0 -2.1458298843e+01 -5.9522352570e+01 -1.4243396078e+02  1.5585541739e+02  3.3000000000e-01 0. 9.
       -2     1     5     0     0   103  1.5415768575e+01 -6.9176706176e+00 -2.4789696061e+02  2.4847235675e+02  3.3000000000e-01 0. 9.
       -3     1     7     0     0   104  7.4464726693e+01  3.7466798754e+01 -5.2813142086e+01  9.8682493419e+01  5.0000000000e-01 0. 9.
        2     1     7     0   104     0 -6.9309381749e+00 -3.9369395935e+00  1.5223150518e+01  1.7186931344e+01  3.3000000000e-01 0. 9.
#pdf   -2    2  1.004326e-02  1.504012e-01  2.276940e+02  5.242632e-01  5.141592e-01
</event>
<event>
    12  9999  1.000000e+00  2.478067e+02  7.907116e-03  1.030556e-01
       21    -1     0     0   101   102  0.0000000000e+00  0.0000000000e+00  1.7115218833e+02  1.7115218833e+02  0.0000000000e+00 0. 9.
       21    -1     0     0   103   101  0.0000000000e+00  0.0000000000e+00 -4.1826582074e+02  4.1826582074e+02  0.0000000000e+00 0. 9.
        6     2     1     2   103     0  8.9788120196e+01  1.5384598934e+02 -1.2711031313e+01  2.4878849819e+02  1.7321562155e+02  2.692165e-13 9.
       -6     2     1     2     0   102 -8.9788120196e+01 -1.5384598934e+02 -2.3440260109e+02  3.4062951088e+02  1.7132830858e+02  3.375728e-13 9.
       24     2     3     0     0     0  1.1435988365e+02  1.1175317904e+02  2.9127237478e+01  1.8437532427e+02  8.7056925198e+01  9.923857e-15 9.
        5     1     3     0   103     0 -2.4571763450e+01  4.2092810301e+01 -4.1838268791e+01  6.4413173913e+01  4.8000000000e+00 0. 9.
      -24     2     4     0     0     0 -1.0609072751e+02 -1.3022235308e+02 -1.1657118470e+02  2.1925762829e+02  7.9195724360e+01  1.080633e-13 9.
       -5     1     4     0     0   102  1.6302607309e+01 -2.3623636263e+01 -1.1783141639e+02  1.2137188259e+02  4.8000000000e+00 0. 9.
      -13     1     5     0     0     0  4.1369171823e+00  5.9923558571e+01  1.3623501124e+01  6.1591865554e+01  1.0566000000e-01  2.145853e+05 9.
       14     1     5     0     0     0  1.1022296646e+02  5.1829620467e+01  1.5503736354e+01  1.2278345872e+02  0.0000000000e+00 0. 9.
        1     1     7     0   104     0  1.4869923066e-01  6.7295095586e+00  4.2565398251e+00  7.9709122215e+00  3.3000000000e-01 0. 9.
       -2     1     7     0     0   104 -1.0623942674e+02 -1.3695186263e+02 -1.2082772453e+02  2.1128671607e+02  3.3000000000e-01 0. 9.
#pdf   21   21  2.633111e-02  6.434859e-02  2.471515e+02  3.581602e+00  1.405937e+00
</event>
<event>
    12  9999  1.000000e+00  2.128534e+02  7.893356e-03  1.049420e-01
       21    -1     0     0   101   102  0.0000000000e+00  0.0000000000e+00  2.7389364176e+03  2.7389364176e+03  0.0000000000e+00 0. 9.
       21    -1     0     0   103   101  0.0000000000e+00  0.0000000000e+00 -2.4885896060e+01  2.4885896060e+01  0.0000000000e+00 0. 9.
        6     2     1     2   103     0  1.2107229560e+02  4.1521398729e+01  2.1556041518e+03  2.1660503057e+03  1.6959404587e+02  5.904364e-14 9.
       -6     2     1     2     0   102 -1.2107229560e+02 -4.1521398729e+01  5.5844636973e+02  5.9777200792e+02  1.7054764223e+02  3.070281e-13 9.
       24     2     3     0     0     0  5.1105866853e+01  6.2065785113e+01  7.4444560708e+02  7.5300081924e+02  7.9668064842e+01  3.094819e-14 9.
        5     1     3     0   103     0  6.9966428744e+01 -2.0544386385e+01  1.4111585447e+03  1.4130494865e+03  4.8000000000e+00 0. 9.
      -24     2     4     0     0     0 -1.0857420279e+01  9.9933578733e+00  3.2107498416e+02  3.3099625269e+02  7.9067206006e+01  6.278825e-16 9.
       -5     1     4     0     0   102 -1.1021487532e+02 -5.1514756602e+01  2.3737138557e+02  2.6677575522e+02  4.8000000000e+00 0. 9.
       -1     1     5     0     0   104  6.8006875451e+01  6.2348556966e+01  5.3707284322e+02  5.4494002009e+02  3.3000000000e-01 0. 9.
        2     1     5     0   104     0 -1.6901008599e+01 -2.8277185205e-01  2.0737276386e+02  2.0806079915e+02  3.3000000000e-01 0. 9.
        3     1     7     0   105     0 -8.9346079628e+00 -2.1062614435e+01  2.7138966862e+02  2.7235282848e+02  5.0000000000e-01 0. 9.
       -4     1     7     0     0   105 -1.9228123166e+00  3.1055972308e+01  4.9685315545e+01  5.8643424218e+01  1.5000000000e+00 0. 9.
#pdf   21   21  4.213748e-01  3.828599e-03  2.124727e+02  2.605579e-02  1.621914e+01
</event>
<event>
    12  9999  1.000000e+00  2.059391e+02  7.890373e-03  1.053610e-01
       21    -1     0     0   101   102  0.0000000000e+00  0.0000000000e+00  2.7892201715e+02  2.7892201715e+02  0.0000000000e+00 0. 9.
       21    -1     0     0   102   103  0.0000000000e+00  0.0000000000e+00 -3.2102404518e+02  3.2102404518e+02  0.0000000000e+00 0. 9.
        6     2     1     2   101     0  1.0487033831e+02  4.3419983548e+01  1.9652958713e+02  2.8536471221e+02  1.7299149554e+02  5.755584e-14 9.
       -6     2     1     2     0   103 -1.0487033831e+02 -4.3419983548e+01 -2.3863161516e+02  3.1458135012e+02  1.7068478333e+02  4.190107e-14 9.
       24     2     3     0     0     0  6.9939135518e+00 -1.8313749163e+01  4.3230460819e+01  9.3233219719e+01  8.0244951750e+01  1.775658e-13 9.
        5     1     3     0   101     0  9.7876424762e+01  6.1733732711e+01  1.5329912632e+02  1.9213149249e+02  4.8000000000e+00 0. 9.
      -24     2     4     0     0     0 -1.3354423938e+02 -5.7605795786e+01 -1.6534740664e+02  2.3447488915e+02  8.0537054690e+01  3.695007e-13 9.
       -5     1     4     0     0   103  2.8673901069e+01  1.4185812238e+01 -7.3284208521e+01  8.0106460974e+01  4.8000000000e+00 0. 9.
       -3     1     5     0     0   104  2.5572845051e+01  2.0475352214e+01  3.7534688259e+01  4.9822818818e+01  5.0000000000e-01 0. 9.
        4     1     5     0   104     0 -1.8578931499e+01 -3.8789101377e+01  5.6957725604e+00  4.3410400901e+01  1.5000000000e+00 0. 9.
        1     1     7     0   105     0 -6.7163503270e+01  1.3130711154e+01 -5.7168372265e+01  8.9172212232e+01  3.3000000000e-01 0. 9.
       -2     1     7     0     0   105 -6.6380736113e+01 -7.0736506939e+01 -1.0817903437e+02  1.4530267691e+02  3.3000000000e-01 0. 9.
#pdf   21   21  4.291108e-02  4.938831e-02  2.049790e+02  2.233559e+00  1.923348e+00
</event>
<event>
    12  9999  1.000000e+00  1.834559e+02  7.879951e-03  1.068549e-01
        2    -1     0     0   101     0  0.0000000000e+00  0.0000000000e+00  2.8370506278e+02  2.8370506278e+02  0.0000000000e+00 0. 9.
       -2    -1     0     0     0   102  0.0000000000e+00  0.0000000000e+00 -1.3332799800e+02  1.3332799800e+02  0.0000000000e+00 0. 9.
        6     2     1     2   101     0  5.6625042568e+01 -3.5438399046e+01  6.0967475553e+00  1.8393589421e+02  1.7126869905e+02  1.577136e-14 9.
       -6     2     1     2     0   102 -5.6625042568e+01  3.5438399046e+01  1.4428031723e+02  2.3309716657e+02  1.7045586981e+02  9.869586e-14 9.
       24     2     3     0     0     0  5.8304530992e-01 -7.7100366095e+01 -1.2026664842e+01  1.1163151653e+02  7.9825737835e+01  1.372277e-13 9.
        5     1     3     0   101     0  5.6041997259e+01  4.1661967049e+01  1.8123412397e+01  7.2304377682e+01  4.8000000000e+00 0. 9.
      -24     2     4     0     0     0 -1.0006142009e+02  4.8465631764e+01  1.2025593478e+02  1.8155457606e+02  7.8354125526e+01  3.342057e-14 9.
       -5     1     4     0     0   102  4.3436377523e+01 -1.3027232718e+01  2.4024382451e+01  5.1542590513e+01  4.8000000000e+00 0. 9.
      -15     1     5     0     0     0  5.2759563496e+00 -5.7923872645e+01 -4.4754117603e+01  7.3410482013e+01  1.7768200000e+00  1.013827e-01 9.
       16     1     5     0     0     0 -4.6929110397e+00 -1.9176493450e+01  3.2727452761e+01  3.8221034514e+01  0.0000000000e+00 0. 9.
       11     1     7     0     0     0 -2.6157632214e+01  2.3824911698e+01 -3.2514748325e+00  3.5530553461e+01  5.1100000000e-04 0. 9.
      -12     1     7     0     0     0 -7.3903787878e+01  2.4640720067e+01  1.2350740961e+02  1.4602402260e+02  0.0000000000e+00 0. 9.
#pdf    2   -2  4.364693e-02  2.051200e-02  1.830778e+02  6.282547e-01  3.280222e-01
</event>
<event>
    12  9999  1.000000e+00  1.810439e+02  7.878759e-03  1.070287e-01
       21    -1     0     0   101   102  0.0000000000e+00  0.0000000000e+00  1.0059546106e+02  1.0059546106e+02  0.0000000000e+00 0. 9.
       21    -1     0     0   103   101  0.0000000000e+00  0.0000000000e+00 -4.2733863681e+02  4.2733863681e+02  0.0000000000e+00 0. 9.
        6     2     1     2   103     0  4.7292809146e+01 -3.0111991136e+01 -2.9293379690e+02  3.4507527529e+02  1.7356092430e+02  1.241941e-13 9.
       -6     2     1     2     0   102 -4.7292809146e+01  3.0111991136e+01 -3.3809378847e+01  1.8285882259e+02  1.7073644336e+02  2.823754e-13 9.
       24     2     3     0     0     0  7.8806863465e+01 -5.1084351301e+01 -2.8068691306e+02  3.0500032458e+02  7.3620120578e+01  8.075841e-15 9.
        5     1     3     0   103     0 -3.1514054319e+01  2.0972360164e+01 -1.2246883839e+01  4.0074950708e+01  4.8000000000e+00 0. 9.
      -24     2     4     0     0     0 -6.7423732679e+01  4.4313272118e+01 -7.3902427016e+01  1.3555741695e+02  8.0028862025e+01  2.254331e-14 9.
       -5     1     4     0     0   102  2.0130923533e+01 -1.4201280982e+01  4.0093048168e+01  4.7301405637e+01  4.8000000000e+00 0. 9.
       -1     1     5     0     0   104  2.8032544672e+01 -2.8499258343e+01 -2.1623248787e+02  2.1989685990e+02  3.3000000000e-01 0. 9.
        2     1     5     0   104     0  5.0774318793e+01 -2.2585092957e+01 -6.4454425195e+01  8.5103464677e+01  3.3000000000e-01 0. 9.
        1     1     7     0   105     0 -2.2611402106e+01  2.0884519911e+01  1.4257729339e+01  3.3923891625e+01  3.3000000000e-01 0. 9.
       -2     1     7     0     0   105 -4.4812330573e+01  2.3428752207e+01 -8.8160156355e+01  1.0163352532e+02  3.3000000000e-01 0. 9.
#pdf   21   21  1.547622e-02  6.574441e-02  1.797061e+02  5.736794e+00  1.405245e+00
</event>
<event>
    12  9999  1.000000e+00  2.486213e+02  7.907413e-03  1.030156e-01
       21    -1     0     0   101   102  0.0000000000e+00  0.0000000000e+00  7.5120961514e+02  7.5120961514e+02  0.0000000000e+00 0. 9.
       21    -1     0     0   102   103  0.0000000000e+00  0.0000000000e+00 -9.5985981709e+01  9.5985981709e+01  0.0000000000e+00 0. 9.
        6     2     1     2   101     0 -1.5887290611e+02  8.5894118379e+01  1.6728015449e+02  2.9944745571e+02  1.7049260621e+02  7.610945e-14 9.
       -6     2     1     2     0   103  1.5887290611e+02 -8.5894118379e+01  4.8794347894e+02  5.4774814114e+02  1.7123313820e+02  6.098445e-15 9.
       24     2     3     0     0     0 -6.3060292912e+01  7.1545780013e+01  2.4652059114e+01  1.2696051344e+02  8.0098993587e+01  2.724458e-15 9.
        5     1     3     0   101     0 -9.5812613201e+01  1.4348338366e+01  1.4262809538e+02  1.7248694227e+02  4.8000000000e+00 0. 9.
      -24     2     4     0     0     0  1.4634645299e+02 -4.2816514012e+01  2.4581864439e+02  3.0145549502e+02  8.4841448465e+01  2.346452e-13 9.
       -5     1     4     0     0   103  1.2526453127e+01 -4.3077604367e+01  2.4212483455e+02  2.4629264612e+02  4.8000000000e+00 0. 9.
      -15     1     5     0     0     0 -3.8183514865e-01  5.4656911122e+01  2.9000982267e+01  6.1901032247e+01  1.7768200000e+00  3.161418e-02 9.
       16     1     5     0     0     0 -6.2678457763e+01  1.6888868891e+01 -4.3489231533e+00  6.5059481189e+01  0.0000000000e+00 0. 9.
        3     1     7     0   104     0  4.7731270520e+01 -5.7484318806e+01  1.0125060083e+02  1.2583582663e+02  5.0000000000e-01 0. 9.
       -4     1     7     0     0   104  9.8615182467e+01  1.4667804794e+01  1.4456804355e+02  1.7561966840e+02  1.5000000000e+00 0. 9.
#pdf   21   21  1.155707e-01  1.476707e-02  2.483669e+02  6.501079e-01  5.948630e+00
</event>
<event>
    12  9999  1.000000e+00  2.337154e+02  7.901812e-03  1.037738e-01
       21    -1     0     0   101   102  0.0000000000e+00  0.0000000000e+00  1.9663151614e+02  1.9663151614e+02  0.0000000000e+00 0. 9.
       21    -1     0     0   102   103  0.0000000000e+00  0.0000000000e+00 -3.7681448043e+02  3.7681448043e+02  0.0000000000e+00 0. 9.
        6     2     1     2   101     0 -1.4053728099e+02 -7.2356015881e+01  5.7087073293e+01  2.3990640764e+02  1.7120172344e+02  1.237986e-13 9.
       -6     2     1     2     0   103  1.4053728099e+02  7.2356015881e+01 -2.3727003759e+02  3.3353958893e+02  1.7310536174e+02  5.382446e-14 9.
       24     2     3     0     0     0 -5.2138787493e+01 -6.3838227373e+01 -2.4445278035e+01  1.1925231245e+02  8.2642422344e+01  2.853066e-13 9.
        5     1     3     0   101     0 -8.8398493498e+01 -8.5177885075e+00  8.1532351327e+01  1.2065409519e+02  4.8000000000e+00 0. 9.
      -24     2     4     0     0     0  5.9010684059e+01  1.0315120727e+02 -1.7510004277e+02  2.2638046390e+02  8.0409309566e+01  5.143860e-14 9.
       -5     1     4     0     0   103  8.1526596932e+01 -3.0795191390e+01 -6.2169994824e+01  1.0715912503e+02  4.8000000000e+00 0. 9.
       -3     1     5     0     0   104  2.1808503901e+01 -2.4616311011e+01 -9.2370672026e+00  3.4163533492e+01  5.0000000000e-01 0. 9.
        4     1     5     0   104     0 -7.3947291394e+01 -3.9221916363e+01 -1.5208210832e+01  8.5088778957e+01  1.5000000000e+00 0. 9.
        1     1     7     0   105     0  4.0927539984e+01  5.8126109343e+01 -3.7287779330e+01  8.0275746673e+01  3.3000000000e-01 0. 9.
       -2     1     7     0     0   105  1.8083144075e+01  4.5025097928e+01 -1.3781226344e+02  1.4610471723e+02  3.3000000000e-01 0. 9.
#pdf   21   21  3.025100e-02  5.797146e-02  2.330153e+02  3.147942e+00  1.594879e+00
</event>
<event>
    12  9999  1.000000e+00  1.748909e+02  7.875648e-03  1.074854e-01
       21    -1     0     0   101   102  0.0000000000e+00  0.0000000000e+00  6.9129790348e+01  6.9129790348e+01  0.0000000000e+00 0. 9.
       21    -1     0     0   103   101  0.0000000000e+00  0.0000000000e+00 -4.7834590829e+02  4.7834590829e+02  0.0000000000e+00 0. 9.
        6     2     1     2   103     0  7.9257104994e+00 -1.2990894035e+01 -2.7515892273e+02  3.2399951061e+02  1.7038682431e+02  9.101982e-14 9.
       -6     2     1     2     0   102 -7.9257104994e+00  1.2990894035e+01 -1.3405719520e+02  2.2347618803e+02  1.7815357087e+02  1.067817e-13 9.
       24     2     3     0     0     0  2.9193599698e+01 -5.9162918669e+00 -5.3418968176e+01  1.0107795365e+02  8.0472963045e+01  2.437156e-13 9.
        5     1     3     0   103     0 -2.1267889198e+01 -7.0746021679e+00 -2.2173995456e+02  2.2292155695e+02  4.8000000000e+00 0. 9.
      -24     2     4     0     0     0  2.4659612320e+01  6.4553653337e+01 -1.2327558324e+02  1.6134886258e+02  7.7854450069e+01  8.687985e-15 9.
       -5     1     4     0     0   102 -3.2585322820e+01 -5.1562759302e+01 -1.0781611966e+01  6.2127325443e+01  4.8000000000e+00 0. 9.
       -3     1     5     0     0   104 -2.5482803535e+01  8.6055100510e+00 -6.7755933865e+00  2.7741426513e+01  5.0000000000e-01 0. 9.
        4     1     5     0   104     0  5.4676403233e+01 -1.4521801918e+01 -4.6643374790e+01  7.3336527141e+01  1.5000000000e+00 0. 9.
        3     1     7     0   105     0 -5.4710527506e+00 -1.5793642930e+01 -3.1769657220e+01  3.5901708804e+01  5.0000000000e-01 0. 9.
       -2     1     7     0     0   105  3.0130665071e+01  8.0347296267e+01 -9.1505926018e+01  1.2544715378e+02  3.3000000000e-01 0. 9.
#pdf   21   21  1.063535e-02  7.359168e-02  1.710650e+02  7.727101e+00  1.232537e+00
</event>
<event>
    12  9999  1.000000e+00  1.994404e+02  7.887480e-03  1.057711e-01
       21    -1     0     0   101   102  0.0000000000e+00  0.0000000000e+00  2.2585593964e+03  2.2585593964e+03  0.0000000000e+00 0. 9.
       21    -1     0     0   102   103  0.0000000000e+00  0.0000000000e+00 -3.6544055248e+01  3.6544055248e+01  0.0000000000e+00 0. 9.
        6     2     1     2   101     0 -8.7817646187e+01 -5.1303769601e+01  1.9345290821e+03  1.9446895599e+03  1.7050131775e+02  3.215940e-13 9.
       -6     2     1     2     0   103  8.7817646187e+01  5.1303769601e+01  2.8748625913e+02  3.5041389177e+02  1.7261961244e+02  4.029542e-14 9.
       24     2     3     0     0     0 -5.7924749025e+01 -6.8849171754e+01  1.8397126078e+03  1.8436221061e+03  7.9400917229e+01  4.773314e-14 9.
        5     1     3     0   101     0 -2.9892897162e+01  1.7545402153e+01  9.4816474237e+01  1.0106745383e+02  4.8000000000e+00 0. 9.
      -24     2     4     0     0     0  8.5719379332e+01 -1.8931700970e+01  1.2082582969e+02  1.6948251585e+02  8.0120039719e+01  4.676832e-15 9.
       -5     1     4     0     0   103  2.0982668545e+00  7.0235470571e+01  1.6666042944e+02  1.8093137592e+02  4.8000000000e+00 0. 9.
       -1     1     5     0     0   104 -4.3350181026e+01 -9.5975295673e+00  1.2440984812e+03  1.2448905537e+03  3.3000000000e-01 0. 9.
        2     1     5     0   104     0 -1.4574567999e+01 -5.9251642187e+01  5.9561412660e+02  5.9873155240e+02  3.3000000000e-01 0. 9.
        3     1     7     0   105     0  8.9582846928e+01 -2.9819740049e+01  1.2539669450e+02  1.5696778126e+02  5.0000000000e-01 0. 9.
       -4     1     7     0     0   105 -3.8634675951e+00  1.0888039079e+01 -4.5708648140e+00  1.2514734595e+01  1.5000000000e+00 0. 9.
#pdf   21   21  3.474707e-01  5.622162e-03  1.985314e+02  6.234017e-02  1.240185e+01
</event>
<event>
    12  9999  1.000000e+00  1.830819e+02  7.879767e-03  1.068817e-01
       21    -1     0     0   101   102  0.0000000000e+00  0.0000000000e+00  6.4409290446e+02  6.4409290446e+02  0.0000000000e+00 0. 9.
       21    -1     0     0   102   103  0.0000000000e+00  0.0000000000e+00 -6.1100363390e+01  6.1100363390e+01  0.0000000000e+00 0. 9.
        6     2     1     2   101     0 -4.6253993855e+01 -4.4835214075e+01  4.2822788611e+02  4.6600394967e+02  1.7213637122e+02  1.311954e-14 9.
       -6     2     1     2     0   103  4.6253993855e+01  4.4835214075e+01  1.5476465496e+02  2.3918931818e+02  1.7061595218e+02  1.867041e-13 9.
       24     2     3     0     0     0 -2.0517540479e+01 -6.9743394883e+00  4.0555888273e+02  4.1469376968e+02  8.3805157162e+01  3.210341e-14 9.
        5     1     3     0   101     0 -2.5736453376e+01 -3.7860874587e+01  2.2669003381e+01  5.1310179995e+01  4.8000000000e+00 0. 9.
      -24     2     4     0     0     0 -1.1520895427e+01  8.1280221178e+01  9.4360570199e+01  1.4787738123e+02  7.8896117047e+01  3.013629e-14 9.
       -5     1     4     0     0   103  5.7774889282e+01 -3.6445007103e+01  6.0404084763e+01  9.1311936954e+01  4.8000000000e+00 0. 9.
      -15     1     5     0     0     0  2.4968856159e+01 -2.6138157078e+01  1.4105082877e+02  1.4561984899e+02  1.7768200000e+00  4.290647e-02 9.
       16     1     5     0     0     0 -4.5486396639e+01  1.9163817589e+01  2.6450805396e+02  2.6907392069e+02  0.0000000000e+00 0. 9.
        1     1     7     0   104     0  2.6691632210e+01  6.4728954807e+01  4.4710584922e+01  8.3074822447e+01  3.3000000000e-01 0. 9.
       -2     1     7     0     0   104 -3.8212527637e+01  1.6551266370e+01  4.9649985277e+01  6.4802558783e+01  3.3000000000e-01 0. 9.
#pdf   21   21  9.909122e-02  9.400056e-03  1.823717e+02  8.359793e-01  8.499415e+00
</event>
<event>
    12  9999  1.000000e+00  3.030600e+02  7.925406e-03  1.006615e-01
       21    -1     0     0   101   102  0.0000000000e+00  0.0000000000e+00  5.0988984810e+02  5.0988984810e+02  0.0000000000e+00 0. 9.
       21    -1     0     0   102   103  0.0000000000e+00  0.0000000000e+00 -3.2634693000e+02  3.2634693000e+02  0.0000000000e+00 0. 9.
        6     2     1     2   101     0 -1.4350052220e+02 -2.0445566214e+02  3.7167757165e+02  4.7969645112e+02  1.7195915300e+02  9.026462e-14 9.
       -6     2     1     2     0   103  1.4350052220e+02  2.0445566214e+02 -1.8813465356e+02  3.5654032698e+02  1.7126540586e+02  1.035859e-14 9.
       24     2     3     0     0     0 -1.1098419402e+02 -2.0125141966e+02  2.3163770860e+02  3.3581531264e+02  7.9349044862e+01  1.480123e-13 9.
        5     1     3     0   101     0 -3.2516328176e+01 -3.2042424773e+00  1.4003986305e+02  1.4388113848e+02  4.8000000000e+00 0. 9.
      -24     2     4     0     0     0  1.5820409472e+02  1.1298680402e+02 -1.3170238776e+02  2.4795677540e+02  7.9639751756e+01  5.919504e-14 9.
       -5     1     4     0     0   103 -1.4703572520e+01  9.1468858116e+01 -5.6432265798e+01  1.0858355158e+02  4.8000000000e+00 0. 9.
      -13     1     5     0     0     0 -1.8563518075e+01 -1.9601281565e+01  7.2103999129e+01  7.6992287255e+01  1.0566000000e-01  5.524773e+05 9.
       14     1     5     0     0     0 -9.2420675945e+01 -1.8165013809e+02  1.5953370948e+02  2.5882302539e+02  0.0000000000e+00 0. 9.
       11     1     7     0     0     0  1.0630943610e+02  9.3656329803e+01 -5.2035549038e+01  1.5093343791e+02  5.1100000000e-04 0. 9.
      -12     1     7     0     0     0  5.1894658616e+01  1.9330474217e+01 -7.9666838720e+01  9.7023337491e+01  0.0000000000e+00 0. 9.
#pdf   21   21  7.844459e-02  5.020722e-02  3.028636e+02  1.083192e+00  1.842127e+00
</event>
<event>
    12  9999  1.000000e+00  1.784783e+02  7.877475e-03  1.072167e-01
       21    -1     0     0   101   102  0.0000000000e+00  0.0000000000e+00  4.6838839063e+02  4.6838839063e+02  0.0000000000e+00 0. 9.
       21    -1     0     0   103   101  0.0000000000e+00  0.0000000000e+00 -1.4478780757e+02  1.4478780757e+02  0.0000000000e+00 0. 9.
        6     2     1     2   103     0  3.9970413138e+00 -4.9937007018e+01 -6.1674698952e+01  1.8835458983e+02  1.7077471128e+02  3.477674e-13 9.
       -6     2     1     2     0   102 -3.9970413138e+00  4.9937007018e+01  3.8527528201e+02  4.2482160837e+02  1.7183327676e+02  1.593314e-13 9.
       24     2     3     0     0     0 -5.2391991503e+01  5.5424392804e+00 -4.9129276792e+01  1.0811669604e+02  8.0621924546e+01  2.430651e-13 9.
        5     1     3     0   103     0  5.6389032816e+01 -5.5479446298e+01 -1.2545422160e+01  8.0237893795e+01  4.8000000000e+00 0. 9.
      -24     2     4     0     0     0  1.4853304001e+01  7.3590167648e+01  1.4966284559e+02  1.8722727401e+02  8.3779182186e+01  1.411380e-13 9.
       -5     1     4     0     0   102 -1.8850345314e+01 -2.3653160630e+01  2.3561243642e+02  2.3759433437e+02  4.8000000000e+00 0. 9.
       -1     1     5     0     0   104 -5.7700378813e+01 -1.2447413426e+01 -6.1813774846e+01  8.5471185068e+01  3.3000000000e-01 0. 9.
        2     1     5     0   104     0  5.3083873107e+00  1.7989852706e+01  1.2684498054e+01  2.2645510971e+01  3.3000000000e-01 0. 9.
       13     1     7     0     0     0  3.4812956307e+01 -4.0038723982e-01  5.9082997864e+01  6.8577795513e+01  1.0566000000e-01  6.116257e+05 9.
      -14     1     7     0     0     0 -1.9959652307e+01  7.3990554888e+01  9.0579847725e+01  1.1864947849e+02  0.0000000000e+00 0. 9.
#pdf   21   21  7.205975e-02  2.227505e-02  1.779710e+02  1.260430e+00  4.207245e+00
</event>
<event>
    12  9999  1.000000e+00  1.772356e+02  7.876846e-03  1.073090e-01
       -1    -1     0     0     0   101  0.0000000000e+00  0.0000000000e+00  2.6905647658e+01  2.6905647658e+01  0.0000000000e+00 0. 9.
        1    -1     0     0   102     0  0.0000000000e+00  0.0000000000e+00 -1.2019967489e+03  1.2019967489e+03  0.0000000000e+00 0. 9.
       -6     2     1     2     0   101 -4.6693204929e+01 -3.7591256468e+00 -6.9441929775e+02  7.1689881829e+02  1.7184693238e+02  5.898768e-13 9.
        6     2     1     2   102     0  4.6693204929e+01  3.7591256468e+00 -4.8067180345e+02  5.1200357822e+02  1.7002321921e+02  2.889719e-14 9.
      -24     2     3     0     0     0 -8.8216280052e+01 -3.2702076603e+01 -4.1856582485e+02  4.3639919496e+02  7.9971055701e+01  2.671577e-14 9.
       -5     1     3     0     0   101  4.1523075123e+01  2.8942950956e+01 -2.7585347290e+02  2.8049962333e+02  4.8000000000e+00 0. 9.
       24     2     4     0     0     0 -3.1001455591e+01 -5.0045533819e+01 -2.3631287930e+02  2.4996212069e+02  5.6317307766e+01  2.930135e-15 9.
        5     1     4     0   102     0  7.7694660520e+01  5.3804659466e+01 -2.4435892415e+02  2.6204145753e+02  4.8000000000e+00 0. 9.
        1     1     5     0   103     0 -1.0324978958e+02 -2.4010710796e+01 -3.5312984857e+02  3.6869748051e+02  3.3000000000e-01 0. 9.
       -2     1     5     0     0   103  1.5033509527e+01 -8.6913658067e+00 -6.5435976276e+01  6.7701714450e+01  3.3000000000e-01 0. 9.
       -3     1     7     0     0   104 -1.1701182146e+01 -2.9385144587e+01 -2.0626595928e+02  2.0867750321e+02  5.0000000000e-01 0. 9.
        4     1     7     0   104     0 -1.9300273446e+01 -2.0660389232e+01 -3.0046920014e+01  4.1284617482e+01  1.5000000000e+00 0. 9.
#pdf   -1    1  4.139330e-03  1.849226e-01  1.763584e+02  8.463595e-01  2.398946e-01
</event>
<event>
    12  9999  1.000000e+00  1.906095e+02  7.883396e-03  1.063559e-01
       21    -1     0     0   101   102  0.0000000000e+00  0.0000000000e+00  3.8946027808e+02  3.8946027808e+02  0.0000000000e+00 0. 9.
       21    -1     0     0   102   103  0.0000000000e+00  0.0000000000e+00 -1.3470129332e+02  1.3470129332e+02  0.0000000000e+00 0. 9.
        6     2     1     2   101     0 -7.5463496723e+01 -3.7569315032e+01  2.7284491117e+02  3.3301435261e+02  1.7131264028e+02  4.323474e-13 9.
       -6     2     1     2     0   103  7.5463496723e+01  3.7569315032e+01 -1.8085926415e+01  1.9114721879e+02  1.7059884451e+02  1.224378e-13 9.
       24     2     3     0     0     0 -2.0351535535e+00 -1.1609550552e+01  8.2039137613e+01  1.2686995133e+02  9.6055405559e+01  1.173169e-14 9.
        5     1     3     0   101     0 -7.3428343170e+01 -2.5959764480e+01  1.9080577356e+02  2.0614440127e+02  4.8000000000e+00 0. 9.
      -24     2     4     0     0     0 -1.1235546251e+01 -1.8643074003e+01  6.3266613194e+00  8.4866594152e+01  8.1783314018e+01  4.135782e-13 9.
       -5     1     4     0     0   103  8.6699042974e+01  5.6212389034e+01 -2.4412587735e+01  1.0628062464e+02  4.8000000000e+00 0. 9.
       -1     1     5     0     0   104  3.0635328985e+01  2.3661968451e+01  6.5391804030e+01  7.5990848575e+01  3.3000000000e-01 0. 9.
        2     1     5     0   104     0 -3.2670482538e+01 -3.5271519002e+01  1.6647333583e+01  5.0879102758e+01  3.3000000000e-01 0. 9.
        3     1     7     0   105     0 -2.9056906420e+01  1.6269540575e+01  2.4783351517e+01  4.1514651313e+01  5.0000000000e-01 0. 9.
       -4     1     7     0     0   105  1.7821360169e+01 -3.4912614577e+01 -1.8456690197e+01  4.3351942839e+01  1.5000000000e+00 0. 9.
#pdf   21   21  5.991697e-02  2.072328e-02  1.902897e+02  1.558626e+00  4.477157e+00
</event>
<event>
    12  9999  1.000000e+00  4.610408e+02  7.963803e-03  9.601642e-02
       21    -1     0     0   101   102  0.0000000000e+00  0.0000000000e+00  8.1175775491e+02  8.1175775491e+02  0.0000000000e+00 0. 9.
       21    -1     0     0   102   103  0.0000000000e+00  0.0000000000e+00 -2.8822810974e+02  2.8822810974e+02  0.0000000000e+00 0. 9.
        6     2     1     2   101     0 -3.0967651567e+02 -2.9591441974e+02  4.2822746521e+02  6.2934716760e+02  1.7098013696e+02  4.224581e-14 9.
       -6     2     1     2     0   103  3.0967651567e+02  2.9591441974e+02  9.5302179957e+01  4.7063869706e+02  1.7015695547e+02  1.220187e-12 9.
       24     2     3     0     0     0 -3.1084302945e+01 -5.3703480232e+01  1.0505870213e+02  1.3869367516e+02  6.5941693623e+01  3.043923e-14 9.
        5     1     3     0   101     0 -2.7859221273e+02 -2.4221093951e+02  3.2316876308e+02  4.9065349244e+02  4.8000000000e+00 0. 9.
      -24     2     4     0     0     0  3.0928358479e+02  2.2973680606e+02  9.1372539490e+01  4.0416980944e+02  8.1049108627e+01  7.682362e-14 9.
       -5     1     4     0     0   103  3.9293087823e-01  6.6177613675e+01  3.9296404669e+00  6.6468887614e+01  4.8000000000e+00 0. 9.
      -11     1     5     0     0     0 -8.8991911625e+00  1.5406179422e+01  2.4196046628e+01  3.0033225608e+01  5.1100000000e-04 0. 9.
       12     1     5     0     0     0 -2.2185111782e+01 -6.9109659654e+01  8.0862655498e+01  1.0866044955e+02  0.0000000000e+00 0. 9.
        1     1     7     0   104     0  4.5804217791e+01  2.9611600402e+00  1.4523318681e+01  4.8143852377e+01  3.3000000000e-01 0. 9.
       -2     1     7     0     0   104  2.6347936700e+02  2.2677564602e+02  7.6849220809e+01  3.5602595707e+02  3.3000000000e-01 0. 9.
#pdf   21   21  1.248858e-01  4.434279e-02  4.608886e+02  5.380893e-01  2.058733e+00
</event>
<event>
    12  9999  1.000000e+00  2.175488e+02  7.895327e-03  1.046670e-01
       21    -1     0     0   101   102  0.0000000000e+00  0.0000000000e+00  1.0520909667e+02  1.0520909667e+02  0.0000000000e+00 0. 9.
       21    -1     0     0   102   103  0.0000000000e+00  0.0000000000e+00 -4.5086054037e+02  4.5086054037e+02  0.0000000000e+00 0. 9.
        6     2     1     2   101     0 -1.1658392213e+02  6.7080744779e+01 -1.5972385281e+02  2.6999960370e+02  1.7116202739e+02  1.296247e-14 9.
       -6     2     1     2     0   103  1.1658392213e+02 -6.7080744779e+01 -1.8592759090e+02  2.8607003335e+02  1.7080795562e+02  4.955980e-13 9.
       24     2     3     0     0     0 -1.4891140348e+02  6.4816993451e+01 -1.1581368882e+02  2.1521517961e+02  8.0801697325e+01  1.709872e-13 9.
        5     1     3     0   101     0  3.2327481352e+01  2.2637513288e+00 -4.3910163988e+01  5.4784424083e+01  4.8000000000e+00 0. 9.
      -24     2     4     0     0     0  9.0070061845e+01 -1.1111298541e+02 -1.5439476131e+02  2.2557885759e+02  8.1174916720e+01  1.508316e-13 9.
       -5     1     4     0     0   103  2.6513860286e+01  4.4032240635e+01 -3.1532829586e+01  6.0491175755e+01  4.8000000000e+00 0. 9.
       -3     1     5     0     0   104 -2.0999141567e+01  2.3085968453e+01  8.1527785807e+00  3.2259009355e+01  5.0000000000e-01 0. 9.
        4     1     5     0   104     0 -1.2791226192e+02  4.1731024998e+01 -1.2396646740e+02  1.8295617026e+02  1.5000000000e+00 0. 9.
       11     1     7     0     0     0 -1.1417282519e+01 -1.2658800761e+01 -1.1768962344e+00  1.7087558685e+01  5.1100000000e-04 0. 9.
      -12     1     7     0     0     0  1.0148734436e+02 -9.8454184653e+01 -1.5321786508e+02  2.0849129891e+02  0.0000000000e+00 0. 9.
#pdf   21   21  1.618601e-02  6.936316e-02  2.174097e+02  5.518617e+00  1.298457e+00
</event>
<event>
    12  9999  1.000000e+00  1.830061e+02  7.879730e-03  1.068871e-01
       21    -1     0     0   101   102  0.0000000000e+00  0.0000000000e+00  2.0640575423e+02  2.0640575423e+02  0.0000000000e+00 0. 9.
       21    -1     0     0   102   103  0.0000000000e+00  0.0000000000e+00 -2.3973626528e+02  2.3973626528e+02  0.0000000000e+00 0. 9.
        6     2     1     2   101     0  3.8060456532e+00 -6.5803656875e+01  1.1017797540e+02  2.1316963990e+02  1.7016903910e+02  2.558769e-14 9.
       -6     2     1     2     0   103 -3.8060456532e+00  6.5803656875e+01 -1.4350848646e+02  2.3297237961e+02  1.7127999513e+02  1.167673e-13 9.
       24     2     3     0     0     0  2.7485613164e+01 -5.7998770720e+01  3.2101255909e+00  1.0322966055e+02  8.0788251468e+01  4.319996e-14 9.
        5     1     3     0   101     0 -2.3679567511e+01 -7.8048861552e+00  1.0696784981e+02  1.0993997935e+02  4.8000000000e+00 0. 9.
      -24     2     4     0     0     0 -4.6719907284e+01 -8.9845746321e+00 -6.6024576569e+01  1.1694791933e+02  8.3988682603e+01  2.656700e-13 9.
       -5     1     4     0     0   103  4.2913861631e+01  7.4788231508e+01 -7.7483909892e+01  1.1602446028e+02  4.8000000000e+00 0. 9.
      -13     1     5     0     0     0  3.6321012426e+01 -1.3167542074e+01  3.1187357971e+01  4.9651410545e+01  1.0566000000e-01  5.166417e+05 9.
       14     1     5     0     0     0 -8.8353992620e+00 -4.4831228647e+01 -2.7977232380e+01  5.3578250006e+01  0.0000000000e+00 0. 9.
        3     1     7     0   104     0 -2.5287327411e+01 -1.3210723496e+01  1.5542454744e+01  3.2492922958e+01  5.0000000000e-01 0. 9.
       -4     1     7     0     0   104 -2.1432579873e+01  4.2261488639e+00 -8.1567031313e+01  8.4454996367e+01  1.5000000000e+00 0. 9.
#pdf   21   21  3.175473e-02  3.688250e-02  1.824887e+02  3.034226e+00  2.621425e+00
</event>
<event>
    12  9999  1.000000e+00  1.703992e+02  7.873309e-03  1.078369e-01
       21    -1     0     0   101   102  0.0000000000e+00  0.0000000000e+00  4.6963519138e+01  4.6963519138e+01  0.0000000000e+00 0. 9.
       21    -1     0     0   102   103  0.0000000000e+00  0.0000000000e+00 -1.4386599217e+03  1.4386599217e+03  0.0000000000e+00 0. 9.
        6     2     1     2   101     0  2.9799947053e+01 -9.3861368952e+00 -1.4136201906e+02  2.2420585858e+02  1.7119845262e+02  5.978615e-14 9.
       -6     2     1     2     0   103 -2.9799947053e+01  9.3861368952e+00 -1.2503343835e+03  1.2614175823e+03  1.6389664378e+02  1.350969e-13 9.
       24     2     3     0     0     0  4.4766876819e+00 -6.5355433267e+01 -5.0742745683e+01  1.1462154260e+02  7.9195318039e+01  7.223009e-14 9.
        5     1     3     0   101     0  2.5323259371e+01  5.5969296371e+01 -9.0619273375e+01  1.0958431598e+02  4.8000000000e+00 0. 9.
      -24     2     4     0     0     0 -5.0454983909e+01  1.0055870396e+01 -8.6639070247e+02  8.7688816947e+02  1.2511269520e+02  3.180696e-15 9.
       -5     1     4     0     0   103  2.0655036856e+01 -6.6973350109e-01 -3.8394368107e+02  3.8452941282e+02  4.8000000000e+00 0. 9.
       -3     1     5     0     0   104  7.2262536381e+00 -3.8775943626e+01 -7.0887544727e+01  8.1123896253e+01  5.0000000000e-01 0. 9.
        4     1     5     0   104     0 -2.7495659562e+00 -2.6579489640e+01  2.0144799044e+01  3.3497646350e+01  1.5000000000e+00 0. 9.
        1     1     7     0   105     0  1.0372878276e+01 -3.0136869911e+01 -6.7169322585e+01  7.4348196537e+01  3.3000000000e-01 0. 9.
       -2     1     7     0     0   105 -6.0827862186e+01  4.0192740308e+01 -7.9922137988e+02  8.0253997293e+02  3.3000000000e-01 0. 9.
#pdf   21   21  7.225157e-03  2.213323e-01  1.668480e+02  1.030419e+01  2.245359e-01
</event>
<event>
    12  9999  1.000000e+00  2.394920e+02  7.904023e-03  1.034730e-01
       21    -1     0     0   101   102  0.0000000000e+00  0.0000000000e+00  4.5950272880e+01  4.5950272880e+01  0.0000000000e+00 0. 9.
       21    -1     0     0   103   101  0.0000000000e+00  0.0000000000e+00 -1.7672967499e+03  1.7672967499e+03  0.0000000000e+00 0. 9.
        6     2     1     2   103     0 -1.3077455608e+02 -1.0660163874e+02 -1.3521703627e+03  1.3732262090e+03  1.7005774739e+02  3.118056e-13 9.
       -6     2     1     2     0   102  1.3077455608e+02  1.0660163874e+02 -3.6917611434e+02  4.4002081379e+02  1.6988648937e+02  1.646174e-13 9.
       24     2     3     0     0     0 -1.0430783660e+02 -4.2362104934e+00 -8.2826924161e+02  8.3874085578e+02  8.0982814833e+01  1.013604e-13 9.
        5     1     3     0   103     0 -2.6466719475e+01 -1.0236542824e+02 -5.2390112109e+02  5.3448535323e+02  4.8000000000e+00 0. 9.
      -24     2     4     0     0     0  1.4021484611e+02  5.4321457403e+01 -2.2256097780e+02  2.8400358814e+02  9.2269309284e+01  6.069960e-14 9.
       -5     1     4     0     0   102 -9.4402900253e+00  5.2280181335e+01 -1.4661513655e+02  1.5601722565e+02  4.8000000000e+00 0. 9.
      -15     1     5     0     0     0 -9.8149580979e+00 -3.2031755051e+01 -2.2316324460e+02  2.2567090544e+02  1.7768200000e+00  4.856801e-02 9.
       16     1     5     0     0     0 -9.4492878507e+01  2.7795544558e+01 -6.0510599701e+02  6.1306995034e+02  0.0000000000e+00 0. 9.
        3     1     7     0   104     0  9.0165247444e+00 -1.7527850452e+01 -5.6483787455e+00  2.0510422774e+01  5.0000000000e-01 0. 9.
       -4     1     7     0     0   104  1.3119832136e+02  7.1849307854e+01 -2.1691259905e+02  2.6349316537e+02  1.5000000000e+00 0. 9.
#pdf   21   21  7.069273e-03  2.718918e-01  2.394312e+02  1.056427e+01  1.282388e-01
</event>
<event>
    12  9999  1.000000e+00  2.524359e+02  7.908794e-03  1.028306e-01
       21    -1     0     0   101   102  0.0000000000e+00  0.0000000000e+00  1.5316599534e+02  1.5316599534e+02  0.0000000000e+00 0. 9.
       21    -1     0     0   102   103  0.0000000000e+00  0.0000000000e+00 -5.3454507340e+02  5.3454507340e+02  0.0000000000e+00 0. 9.
        6     2     1     2   101     0  1.7012067636e+02 -7.4343919240e+01 -2.8993142542e+01  2.5443671114e+02  1.7154991928e+02  1.279659e-13 9.
       -6     2     1     2     0   103 -1.7012067636e+02  7.4343919240e+01 -3.5238593552e+02  4.3327435760e+02  1.7053667801e+02  8.465945e-14 9.
       24     2     3     0     0     0  1.9377129494e+02 -4.3871465677e+01 -2.6995924384e+01  2.1551433883e+02  7.9029298780e+01  2.568980e-13 9.
        5     1     3     0   101     0 -2.3650618579e+01 -3.0472453563e+01 -1.9972181574e+00  3.8922372303e+01  4.8000000000e+00 0. 9.
      -24     2     4     0     0     0 -1.7966070130e+02  3.4538836706e+01 -2.3086413591e+02  3.0495427167e+02  7.8917423480e+01  3.464449e-14 9.
       -5     1     4     0     0   103  9.5400249421e+00  3.9805082535e+01 -1.2152179962e+02  1.2832008593e+02  4.8000000000e+00 0. 9.
       -3     1     5     0     0   104  2.3160368677e+01  8.9579568523e+00 -2.7295875270e+01  3.6904775775e+01  5.0000000000e-01 0. 9.
        4     1     5     0   104     0  1.7061092626e+02 -5.2829422529e+01  2.9995088585e-01  1.7860956306e+02  1.5000000000e+00 0. 9.
       11     1     7     0     0     0 -1.7465343793e+01 -2.1444445754e+01 -3.1406121435e+01  4.1847902592e+01  5.1100000000e-04 0. 9.
      -12     1     7     0     0     0 -1.6219535751e+02  5.5983282460e+01 -1.9945801447e+02  2.6310636908e+02  0.0000000000e+00 0. 9.
#pdf   21   21  2.356400e-02  8.223770e-02  2.520929e+02  3.964444e+00  1.036417e+00
</event>
<event>
    12  9999  1.000000e+00  1.769450e+02  7.876699e-03  1.073307e-01
       21    -1     0     0   101   102  0.0000000000e+00  0.0000000000e+00  1.0644040786e+03  1.0644040786e+03  0.0000000000e+00 0. 9.
       21    -1     0     0   103   101  0.0000000000e+00  0.0000000000e+00 -3.0946371471e+01  3.0946371471e+01  0.0000000000e+00 0. 9.
        6     2     1     2   103     0  2.7092347874e+01  3.2630099628e+01  3.8963702799e+02  4.2713473060e+02  1.6978912152e+02  4.819165e-14 9.
       -6     2     1     2     0   102 -2.7092347874e+01 -3.2630099628e+01  6.4382067914e+02  6.6821571948e+02  1.7380581737e+02  7.262377e-14 9.
       24     2     3     0     0     0  1.7390702126e+01  8.3603065278e+01  2.0685008921e+02  2.3706508509e+02  7.8236731237e+01  3.053849e-14 9.
        5     1     3     0   103     0  9.7016457480e+00 -5.0972965650e+01  1.8278693878e+02  1.9006964552e+02  4.8000000000e+00 0. 9.
      -24     2     4     0     0     0  4.9622890735e+00  1.6518716192e+01  1.4713595625e+02  1.6805388587e+02  7.9344984947e+01  4.601880e-14 9.
       -5     1     4     0     0   102 -3.2054636947e+01 -4.9148815819e+01  4.9668472289e+02  5.0016183361e+02  4.8000000000e+00 0. 9.
      -11     1     5     0     0     0  3.3078173887e+01  5.3863475172e+01  1.8838128878e+02  1.9870316934e+02  5.1100000000e-04 0. 9.
       12     1     5     0     0     0 -1.5687471762e+01  2.9739590106e+01  1.8468800438e+01  3.8361915744e+01  0.0000000000e+00 0. 9.
        3     1     7     0   104     0 -1.8322834182e+01  4.2007087810e+01  9.5408535446e+01  1.0584592725e+02  5.0000000000e-01 0. 9.
       -4     1     7     0     0   104  2.3285123256e+01 -2.5488371618e+01  5.1727420803e+01  6.2207958621e+01  1.5000000000e+00 0. 9.
#pdf   21   21  1.637545e-01  4.760980e-03  1.750059e+02  3.926519e-01  1.385553e+01
</event>
<event>
    12  9999  1.000000e+00  1.815908e+02  7.879031e-03  1.069891e-01
       21    -1     0     0   101   102  0.0000000000e+00  0.0000000000e+00  1.5781090985e+03  1.5781090985e+03  0.0000000000e+00 0. 9.
       21    -1     0     0   103   101  0.0000000000e+00  0.0000000000e+00 -2.2288056826e+01  2.2288056826e+01  0.0000000000e+00 0. 9.
        6     2     1     2   103     0  6.0169316593e+01 -6.5789967019e+00  9.7696849879e+02  9.9365764451e+02  1.7095156339e+02  2.690530e-13 9.
       -6     2     1     2     0   102 -6.0169316593e+01  6.5789967019e+00  5.7885254294e+02  6.0673951086e+02  1.7146118429e+02  1.345520e-13 9.
       24     2     3     0     0     0  8.6212316070e+01  3.0975621418e+01  5.0023094587e+02  5.1471054773e+02  7.9397079087e+01  1.234933e-13 9.
        5     1     3     0   103     0 -2.6042999477e+01 -3.7554618120e+01  4.7673755291e+02  4.7894709679e+02  4.8000000000e+00 0. 9.
      -24     2     4     0     0     0 -3.2446181947e+01 -5.5761350722e+01  4.4028421871e+02  4.5221083524e+02  8.0513125031e+01  6.692814e-15 9.
       -5     1     4     0     0   102 -2.7723134646e+01  6.2340347424e+01  1.3856832423e+02  1.5452867562e+02  4.8000000000e+00 0. 9.
      -15     1     5     0     0     0  4.0059652819e+01  4.8252878500e+00  3.9306379677e+02  3.9513335041e+02  1.7768200000e+00  1.273599e-01 9.
       16     1     5     0     0     0  4.6152663251e+01  2.6150333568e+01  1.0716714910e+02  1.1957719731e+02  0.0000000000e+00 0. 9.
        3     1     7     0   104     0 -3.7077464524e+01  2.4368787041e+00  9.4763487153e+01  1.0178921972e+02  5.0000000000e-01 0. 9.
       -4     1     7     0     0   104  4.6312825766e+00 -5.8198229426e+01  3.4552073156e+02  3.5042161552e+02  1.5000000000e+00 0. 9.
#pdf   21   21  2.427860e-01  3.428932e-03  1.813507e+02  1.802961e-01  1.732204e+01
</event>
<event>
    12  9999  1.000000e+00  2.501747e+02  7.907978e-03  1.029399e-01
       21    -1     0     0   101   102  0.0000000000e+00  0.0000000000e+00  2.3582895540e+02  2.3582895540e+02  0.0000000000e+00 0. 9.
       21    -1     0     0   103   101  0.0000000000e+00  0.0000000000e+00 -7.6203431851e+02  7.6203431851e+02  0.0000000000e+00 0. 9.
        6     2     1     2   103     0 -1.0684705181e+02  1.4878866007e+02 -6.6583052967e+02  7.1122250602e+02  1.7015522614e+02  2.973812e-13 9.
       -6     2     1     2     0   102  1.0684705181e+02 -1.4878866007e+02  1.3962516656e+02  2.8664076789e+02  1.7062644822e+02  4.723160e-15 9.
       24     2     3     0     0     0 -8.0937558403e+01  4.8485649062e+01 -2.1436848641e+02  2.4800224268e+02  8.1544576051e+01  5.673441e-14 9.
        5     1     3     0   103     0 -2.5909493409e+01  1.0030301100e+02 -4.5146204326e+02  4.6322026334e+02  4.8000000000e+00 0. 9.
      -24     2     4     0     0     0  3.4752694958e+00 -1.1684135451e+02  5.2074427971e+01  1.4737653149e+02  7.3103463428e+01  8.117383e-14 9.
       -5     1     4     0     0   102  1.0337178232e+02 -3.1947305561e+01  8.7550738590e+01  1.3926423640e+02  4.8000000000e+00 0. 9.
       -3     1     5     0     0   104 -3.0781822139e+01  3.1134806535e+00 -1.5480561982e+02  1.5786780630e+02  5.0000000000e-01 0. 9.
        4     1     5     0   104     0 -5.0155736265e+01  4.5372168409e+01 -5.9562866592e+01  9.0134436388e+01  1.5000000000e+00 0. 9.
       15     1     7     0     0     0 -1.2600986346e+01 -1.2030054219e+02  4.1816843846e+01  1.2799535471e+02  1.7768200000e+00  2.257562e-01 9.
      -16     1     7     0     0     0  1.6076255842e+01  3.4591876872e+00  1.0257584126e+01  1.9381176782e+01  0.0000000000e+00 0. 9.
#pdf   21   21  3.628138e-02  1.172360e-01  2.500143e+02  2.624795e+00  6.360461e-01
</event>
<event>
    12  9999  1.000000e+00  1.922663e+02  7.884176e-03  1.062436e-01
       21    -1     0     0   101   102  0.0000000000e+00  0.0000000000e+00  1.8639001171e+03  1.8639001171e+03  0.0000000000e+00 0. 9.
       21    -1     0     0   103   101  0.0000000000e+00  0.0000000000e+00 -3.8332421332e+01  3.8332421332e+01  0.0000000000e+00 0. 9.
        6     2     1     2   103     0 -5.7152006388e+01  6.7373261235e+01  2.5203369158e+02  3.1699538410e+02  1.7076177466e+02  2.936982e-13 9.
       -6     2     1     2     0   102  5.7152006388e+01 -6.7373261235e+01  1.5735340042e+03  1.5852371544e+03  1.7076903987e+02  1.444923e-13 9.
       24     2     3     0     0     0 -1.2449661460e+01  8.1965232774e+01  8.7179364775e+01  1.4549840354e+02  8.1830619789e+01  1.599240e-13 9.
        5     1     3     0   103     0 -4.4702344928e+01 -1.4591971538e+01  1.6485432681e+02  1.7149698056e+02  4.8000000000e+00 0. 9.
      -24     2     4     0     0     0  7.6227859252e+01 -9.7283173984e+01  1.4176857568e+03  1.4253302837e+03  8.0366723853e+01  1.852540e-13 9.
       -5     1     4     0     0   102 -1.9075852864e+01  2.9909912749e+01  1.5584824745e+02  1.5990687064e+02  4.8000000000e+00 0. 9.
      -11     1     5     0     0     0 -4.6371326865e+01  6.0820566055e+01  5.8929847375e+01  9.6551375560e+01  5.1100000000e-04 0. 9.
       12     1     5     0     0     0  3.3921665405e+01  2.1144666718e+01  2.8249517400e+01  4.8947027977e+01  0.0000000000e+00 0. 9.
        3     1     7     0   104     0  3.6004140399e+01 -6.1415533413e+01  4.0494831884e+02  4.1115879755e+02  5.0000000000e-01 0. 9.
       -4     1     7     0     0   104  4.0223718853e+01 -3.5867640571e+01  1.0127374379e+03  1.0141714862e+03  1.5000000000e+00 0. 9.
#pdf   21   21  2.867539e-01  5.897296e-03  1.922631e+02  1.167234e-01  1.197639e+01
</event>
<event>
    12  9999  1.000000e+00  2.191624e+02  7.895995e-03  1.045742e-01
       21    -1     0     0   101   102  0.0000000000e+00  0.0000000000e+00  1.3196375605e+03  1.3196375605e+03  0.0000000000e+00 0. 9.
       21    -1     0     0   103   101  0.0000000000e+00  0.0000000000e+00 -3.9459265800e+01  3.9459265800e+01  0.0000000000e+00 0. 9.
        6     2     1     2   103     0  1.3735894300e+02 -4.7830323451e+00  4.5101785121e+02  5.0148050253e+02  1.7080759845e+02  1.295797e-13 9.
       -6     2     1     2     0   102 -1.3735894300e+02  4.7830323451e+00  8.2916044350e+02  8.5761632378e+02  1.7061172623e+02  7.216583e-14 9.
       24     2     3     0     0     0  1.1566270105e+02 -2.8878275000e+01  1.9104265355e+02  2.3944720115e+02  8.1399333432e+01  1.238625e-14 9.
        5     1     3     0   103     0  2.1696241948e+01  2.4095242655e+01  2.5997519766e+02  2.6203330138e+02  4.8000000000e+00 0. 9.
      -24     2     4     0     0     0 -1.4781128613e+02  2.7346062818e+01  5.0459659920e+02  5.3206591163e+02  7.6683915775e+01  3.928752e-14 9.
       -5     1     4     0     0   102  1.0452343136e+01 -2.2563030473e+01  3.2456384430e+02  3.2555041215e+02  4.8000000000e+00 0. 9.
      -11     1     5     0     0     0  5.4058302114e+01 -5.5022593053e+01  9.4631939295e+01  1.2208599309e+02  5.1100000000e-04 0. 9.
       12     1     5     0     0     0  6.1604398934e+01  2.6144318053e+01  9.6410714259e+01  1.1736120807e+02  0.0000000000e+00 0. 9.
        3     1     7     0   104     0 -6.5949410599e+00 -1.1218619516e+01  1.0472462804e+01  1.6711467578e+01  5.0000000000e-01 0. 9.
       -4     1     7     0     0   104 -1.4121634507e+02  3.8564682334e+01  4.9412413639e+02  5.1535444405e+02  1.5000000000e+00 0. 9.
#pdf   21   21  2.030212e-01  6.070656e-03  2.190861e+02  2.548778e-01  1.177697e+01
</event>
<event>
    12  9999  1.000000e+00  1.928557e+02  7.884452e-03  1.062040e-01
       21    -1     0     0   101   102  0.0000000000e+00  0.0000000000e+00  1.2447793519e+03  1.2447793519e+03  0.0000000000e+00 0. 9.
       21    -1     0     0   103   101  0.0000000000e+00  0.0000000000e+00 -4.7744954722e+01  4.7744954722e+01  0.0000000000e+00 0. 9.
        6     2     1     2   103     0 -7.2930845840e+01  4.8683722354e+01  2.0217842848e+02  2.7904781264e+02  1.7117988111e+02  1.478124e-13 9.
       -6     2     1     2     0   102  7.2930845840e+01 -4.8683722354e+01  9.9485596874e+02  1.0134764940e+03  1.7235774516e+02  7.680618e-15 9.
       24     2     3     0     0     0  2.4456763360e+01  4.6592490009e+01  1.0275494779e+02  1.3977546006e+02  7.8801056725e+01  1.885599e-13 9.
        5     1     3     0   103     0 -9.7387609200e+01  2.0912323453e+00  9.9423480697e+01  1.3927235258e+02  4.8000000000e+00 0. 9.
      -24     2     4     0     0     0  8.3359358573e+01  3.1165258088e+01  6.5510169254e+02  6.6427652016e+02  6.4691666327e+01  9.487644e-15 9.
       -5     1     4     0     0   102 -1.0428512733e+01 -7.9848980443e+01  3.3975427620e+02  3.4919997387e+02  4.8000000000e+00 0. 9.
      -13     1     5     0     0     0  3.5421957748e+00 -2.0971150288e+01  3.9625630209e+01  4.4972636445e+01  1.0566000000e-01  2.757172e+04 9.
       14     1     5     0     0     0  2.0914567585e+01  6.7563640297e+01  6.3129317577e+01  9.4802823615e+01  0.0000000000e+00 0. 9.
        3     1     7     0   104     0  3.0808807040e+01  4.2025144702e+00  4.4327127223e+02  4.4436079317e+02  5.0000000000e-01 0. 9.
       -4     1     7     0     0   104  5.2550551533e+01  2.6962743618e+01  2.1183042030e+02  2.1991572699e+02  1.5000000000e+00 0. 9.
#pdf   21   21  1.915045e-01  7.345378e-03  1.923319e+02  2.920502e-01  1.022296e+01
</event>
<event>
    12  9999  1.000000e+00  1.802810e+02  7.878379e-03  1.070843e-01
       21    -1     0     0   101   102  0.0000000000e+00  0.0000000000e+00  1.1453480536e+03  1.1453480536e+03  0.0000000000e+00 0. 9.
       21    -1     0     0   103   101  0.0000000000e+00  0.0000000000e+00 -4.2312349262e+01  4.2312349262e+01  0.0000000000e+00 0. 9.
        6     2     1     2   103     0 -4.8545690895e+01  3.1320413023e+01  2.1112103144e+02  2.7774643009e+02  1.7097759250e+02  1.396186e-13 9.
       -6     2     1     2     0   102  4.8545690895e+01 -3.1320413023e+01  8.9191467293e+02  9.0991397280e+02  1.7056963897e+02  3.186862e-13 9.
       24     2     3     0     0     0 -9.3712215069e+01  2.3635828606e+01  1.8381306285e+02  2.2419427895e+02  8.4470118928e+01  2.856244e-14 9.
        5     1     3     0   103     0  4.5166524175e+01  7.6845844170e+00  2.7307968592e+01  5.3552151145e+01  4.8000000000e+00 0. 9.
      -24     2     4     0     0     0  9.0306947469e+01 -5.2215231887e+01  5.9113017679e+02  6.0548836757e+02  7.9369403069e+01  1.179524e-15 9.
       -5     1     4     0     0   102 -4.1761256575e+01  2.0894818864e+01  3.0078449613e+02  3.0442560523e+02  4.8000000000e+00 0. 9.
       -1     1     5     0     0   104 -1.2159157499e+01 -2.6927265694e+01  6.5532597481e+01  7.1885693858e+01  3.3000000000e-01 0. 9.
        2     1     5     0   104     0 -8.1553057570e+01  5.0563094300e+01  1.1828046537e+02  1.5230858509e+02  3.3000000000e-01 0. 9.
        3     1     7     0   105     0 -5.0122984806e+00 -7.5387558612e+00  5.7950170364e+00  1.0760492482e+01  5.0000000000e-01 0. 9.
       -4     1     7     0     0   105  9.5319245950e+01 -4.4676476026e+01  5.8533515976e+02  5.9472787509e+02  1.5000000000e+00 0. 9.
#pdf   21   21  1.762074e-01  6.509592e-03  1.800879e+02  3.440187e-01  1.113676e+01
</event>
<event>
    12  9999  1.000000e+00  2.605256e+02  7.911656e-03  1.024495e-01
       21    -1     0     0   101   102  0.0000000000e+00  0.0000000000e+00  6.2644656506e+01  6.2644656506e+01  0.0000000000e+00 0. 9.
       21    -1     0     0   102   103  0.0000000000e+00  0.0000000000e+00 -2.2610358091e+03  2.2610358091e+03  0.0000000000e+00 0. 9.
        6     2     1     2   101     0  9.7021704575e+01 -1.7147817380e+02 -2.6260866059e+02  3.7056838262e+02  1.7187100491e+02  1.240570e-13 9.
       -6     2     1     2     0   103 -9.7021704575e+01  1.7147817380e+02 -1.9357824920e+03  1.9531120830e+03  1.6904134739e+02  1.646450e-13 9.
       24     2     3     0     0     0  1.2115427532e+02 -8.5700770620e+01 -1.4462509585e+02  2.2263831327e+02  8.1415107156e+01  1.737720e-13 9.
        5     1     3     0   101     0 -2.4132570747e+01 -8.5777403180e+01 -1.1798356475e+02  1.4793006935e+02  4.8000000000e+00 0. 9.
      -24     2     4     0     0     0 -7.8745352611e+01  1.1235965345e+02 -1.7518330169e+03  1.7589743126e+03  7.9032848286e+01  2.083435e-13 9.
       -5     1     4     0     0   103 -1.8276351963e+01  5.9118520349e+01 -1.8394947507e+02  1.9413777032e+02  4.8000000000e+00 0. 9.
       -1     1     5     0     0   104  1.1145713804e+01  7.3223459491e+00  5.6263176102e+00  1.4477846395e+01  3.3000000000e-01 0. 9.
        2     1     5     0   104     0  1.1000856152e+02 -9.3023116569e+01 -1.5025141346e+02  2.0816046688e+02  3.3000000000e-01 0. 9.
        3     1     7     0   105     0 -2.5258976212e+01  1.1620315176e+01 -7.7600981416e+02  7.7650790677e+02  5.0000000000e-01 0. 9.
       -2     1     7     0     0   105 -5.3486376399e+01  1.0073933828e+02 -9.7582320276e+02  9.8246640588e+02  3.3000000000e-01 0. 9.
#pdf   21   21  9.637639e-03  3.478517e-01  2.596015e+02  8.370762e+00  5.755967e-02
</event>
<event>
    12  9999  1.000000e+00  2.064126e+02  7.890581e-03  1.053317e-01
       21    -1     0     0   101   102  0.0000000000e+00  0.0000000000e+00  4.6419438805e+01  4.6419438805e+01  0.0000000000e+00 0. 9.
       21    -1     0     0   102   103  0.0000000000e+00  0.0000000000e+00 -9.6948494018e+02  9.6948494018e+02  0.0000000000e+00 0. 9.
        6     2     1     2   101     0  9.3980088626e+01 -6.8929295612e+01 -3.4382754722e+02  4.0091088699e+02  1.7008425037e+02  2.692428e-13 9.
       -6     2     1     2     0   103 -9.3980088626e+01  6.8929295612e+01 -5.7923795415e+02  6.1499349200e+02  1.7063669834e+02  5.413023e-14 9.
       24     2     3     0     0     0  7.8822362733e+01  1.5501273220e+01 -2.4365912241e+02  2.6894486508e+02  8.0674148168e+01  1.323918e-14 9.
        5     1     3     0   101     0  1.5157725893e+01 -8.4430568832e+01 -1.0016842482e+02  1.3196602191e+02  4.8000000000e+00 0. 9.
      -24     2     4     0     0     0 -7.5805905993e+01  1.1372170681e+02 -4.3760040698e+02  4.6525740489e+02  7.9316925248e+01  3.687832e-14 9.
       -5     1     4     0     0   103 -1.8174182633e+01 -4.4792411194e+01 -1.4163754717e+02  1.4973608712e+02  4.8000000000e+00 0. 9.
       -1     1     5     0     0   104  7.8200987698e+01 -1.7850038401e+01 -1.6329973333e+02  1.8193661026e+02  3.3000000000e-01 0. 9.
        2     1     5     0   104     0  6.2137503529e-01  3.3351311620e+01 -8.0359389079e+01  8.7008254820e+01  3.3000000000e-01 0. 9.
        3     1     7     0   105     0  7.9156047576e+00  5.2570886558e+01 -1.2262083883e+02  1.3365057062e+02  5.0000000000e-01 0. 9.
       -4     1     7     0     0   105 -8.3721510750e+01  6.1150820248e+01 -3.1497956815e+02  3.3160683427e+02  1.5000000000e+00 0. 9.
#pdf   21   21  7.141452e-03  1.491515e-01  2.061848e+02  1.045281e+01  4.483634e-01
</event>
<event>
    12  9999  1.000000e+00  1.828582e+02  7.879657e-03  1.068977e-01
       -4    -1     0     0     0   101  0.0000000000e+00  0.0000000000e+00  2.7085240152e+02  2.7085240152e+02  0.0000000000e+00 0. 9.
        4    -1     0     0   102     0  0.0000000000e+00  0.0000000000e+00 -1.3279380871e+02  1.3279380871e+02  0.0000000000e+00 0. 9.
       -6     2     1     2     0   101  4.8852768805e+01 -3.0032234824e+01  1.2339065797e+02  2.2275275327e+02  1.7636611485e+02  1.459430e-14 9.
        6     2     1     2   102     0 -4.8852768805e+01  3.0032234824e+01  1.4667934835e+01  1.8089345696e+02  1.7093497685e+02  2.167968e-13 9.
      -24     2     3     0     0     0 -2.1045993094e+01 -5.4972864610e+01  3.7114382073e+01  1.0884705669e+02  8.3697399755e+01  1.391979e-13 9.
       -5     1     3     0     0   101  6.9898761899e+01  2.4940629786e+01  8.6276275902e+01  1.1390569658e+02  4.8000000000e+00 0. 9.
       24     2     4     0     0     0 -4.6888303043e+01  7.2556056946e+01  4.4630056539e+01  1.2861627924e+02  8.4186762485e+01  1.798460e-13 9.
        5     1     4     0   102     0 -1.9644657628e+00 -4.2523822122e+01 -2.9962121703e+01  5.2277177722e+01  4.8000000000e+00 0. 9.
        1     1     5     0   103     0 -1.5416453723e+01  1.1737116450e+01 -1.4590515468e+01  2.4257349187e+01  3.3000000000e-01 0. 9.
       -2     1     5     0     0   103 -5.6295393706e+00 -6.6709981060e+01  5.1704897541e+01  8.4589707508e+01  3.3000000000e-01 0. 9.
       -1     1     7     0     0   104  4.4161268431e+00 -1.3123689092e+01 -7.7241070548e+00  1.5858881470e+01  3.3000000000e-01 0. 9.
        2     1     7     0   104     0 -5.1304429886e+01  8.5679746037e+01  5.2354163593e+01  1.1275739777e+02  3.3000000000e-01 0. 9.
#pdf   -4    4  4.166960e-02  2.042982e-02  1.802978e+02  9.783430e-02  1.853837e-01
</event>
<event>
    12  9999  1.000000e+00  2.470813e+02  7.906850e-03  1.030913e-01
       21    -1     0     0   101   102  0.0000000000e+00  0.0000000000e+00  3.4134304539e+02  3.4134304539e+02  0.0000000000e+00 0. 9.
       21    -1     0     0   103   101  0.0000000000e+00  0.0000000000e+00 -2.5142910831e+02  2.5142910831e+02  0.0000000000e+00 0. 9.
        6     2     1     2   103     0 -4.2200838882e+01 -1.7276995222e+02 -1.1434878528e+02  2.7180064585e+02  1.7079103956e+02  9.327108e-14 9.
       -6     2     1     2     0   102  4.2200838882e+01  1.7276995222e+02  2.0426272236e+02  3.2097150785e+02  1.7224715357e+02  1.942637e-13 9.
       24     2     3     0     0     0  2.3284925022e+01 -1.4985605066e+02 -1.0623936849e+02  2.0178468481e+02  8.0194962151e+01  3.399833e-14 9.
        5     1     3     0   103     0 -6.5485763904e+01 -2.2913901562e+01 -8.1094167944e+00  7.0015961034e+01  4.8000000000e+00 0. 9.
      -24     2     4     0     0     0 -3.6934927896e+01  1.1472652938e+02  1.4772517410e+02  2.0760906750e+02  8.2173185427e+01  1.371795e-15 9.
       -5     1     4     0     0   102  7.9135766778e+01  5.8043422839e+01  5.6537548262e+01  1.1336244035e+02  4.8000000000e+00 0. 9.
       -3     1     5     0     0   104  3.1219839710e+01 -1.5739368771e+02 -1.0050671963e+02  1.8933911908e+02  5.0000000000e-01 0. 9.
        4     1     5     0   104     0 -7.9349146882e+00  7.5376370514e+00 -5.7326488588e+00  1.2445565731e+01  1.5000000000e+00 0. 9.
        3     1     7     0   105     0  7.3686952968e+00  6.6728720123e+01  3.1233931577e+01  7.4046122393e+01  5.0000000000e-01 0. 9.
       -4     1     7     0     0   105 -4.4303623193e+01  4.7997809260e+01  1.1649124252e+02  1.3356294511e+02  1.5000000000e+00 0. 9.
#pdf   21   21  5.251431e-02  3.868140e-02  2.465765e+02  1.776156e+00  2.461403e+00
</event>
<event>
    12  9999  1.000000e+00  2.168769e+02  7.895048e-03  1.047059e-01
       21    -1     0     0   101   102  0.0000000000e+00  0.0000000000e+00  1.6440902651e+02  1.6440902651e+02  0.0000000000e+00 0. 9.
       21    -1     0     0   102   103  0.0000000000e+00  0.0000000000e+00 -2.8771081169e+02  2.8771081169e+02  0.0000000000e+00 0. 9.
        6     2     1     2   101     0  1.2487365051e+02 -4.8011682374e+01 -7.8701145907e+01  2.3097841143e+02  1.7105147162e+02  8.823644e-14 9.
       -6     2     1     2     0   103 -1.2487365051e+02  4.8011682374e+01 -4.4600639267e+01  2.2114142677e+02  1.7034014023e+02  2.300719e-13 9.
       24     2     3     0     0     0  5.0926166602e+00  4.0286593531e+00 -5.5807541235e+01  9.8302677503e+01  8.0664551724e+01  1.031307e-13 9.
        5     1     3     0   101     0  1.1978103385e+02 -5.2040341727e+01 -2.2893604672e+01  1.3267573393e+02  4.8000000000e+00 0. 9.
      -24     2     4     0     0     0 -1.5371026846e+02  4.4041114949e+01 -5.9154460827e+01  1.8824507952e+02  7.9815370033e+01  7.728679e-14 9.
       -5     1     4     0     0   103  2.8836617945e+01  3.9705674253e+00  1.4553821560e+01  3.2896347247e+01  4.8000000000e+00 0. 9.
      -13     1     5     0     0     0 -6.2177953000e+00 -2.7189518634e+01  5.6415871526e+00  2.8456450439e+01  1.0566000000e-01  7.625488e+05 9.
       14     1     5     0     0     0  1.1310411960e+01  3.1218177987e+01 -6.1449128387e+01  6.9846227064e+01  0.0000000000e+00 0. 9.
       13     1     7     0     0     0 -1.0178604494e+01 -1.6587342043e+01  4.4295955043e+00  1.9959368374e+01  1.0566000000e-01  9.933760e+05 9.
      -14     1     7     0     0     0 -1.4353166397e+02  6.0628456992e+01 -6.3584056331e+01  1.6828571115e+02  0.0000000000e+00 0. 9.
#pdf   21   21  2.529370e-02  4.426320e-02  2.165971e+02  3.733374e+00  2.155175e+00
</event>
<event>
    12  9999  1.000000e+00  2.291362e+02  7.900021e-03  1.040188e-01
       21    -1     0     0   101   102  0.0000000000e+00  0.0000000000e+00  2.5752983653e+02  2.5752983653e+02  0.0000000000e+00 0. 9.
       21    -1     0     0   103   101  0.0000000000e+00  0.0000000000e+00 -2.0443447536e+02  2.0443447536e+02  0.0000000000e+00 0. 9.
        6     2     1     2   103     0  1.5089678427e+02  1.6718192528e+01  3.8667000677e+01  2.3251203474e+02  1.7180620447e+02  2.362730e-13 9.
       -6     2     1     2     0   102 -1.5089678427e+02 -1.6718192528e+01  1.4428360499e+01  2.2945227715e+02  1.7143754676e+02  5.349012e-13 9.
       24     2     3     0     0     0  1.7222642910e+01  1.7682442219e+01 -2.0093538075e+01  8.6410882245e+01  8.0335559414e+01  2.732723e-14 9.
        5     1     3     0   103     0  1.3367414136e+02 -9.6424969097e-01  5.8760538752e+01  1.4610115250e+02  4.8000000000e+00 0. 9.
      -24     2     4     0     0     0 -1.4997795013e+02  3.5838607175e+01 -2.3086628719e+00  1.7407873290e+02  8.0748275742e+01  6.400843e-14 9.
       -5     1     4     0     0   102 -9.1883414244e-01 -5.2556799703e+01  1.6737023370e+01  5.5373544247e+01  4.8000000000e+00 0. 9.
      -11     1     5     0     0     0 -4.9770529361e-01  3.2948451681e+01  2.1037213965e+01  3.9094917194e+01  5.1100000000e-04 0. 9.
       12     1     5     0     0     0  1.7720348204e+01 -1.5266009462e+01 -4.1130752040e+01  4.7315965051e+01  0.0000000000e+00 0. 9.
        1     1     7     0   104     0 -8.5032222100e+01  3.5912163993e+01  3.5537089255e+01  9.8909837380e+01  3.3000000000e-01 0. 9.
       -2     1     7     0     0   104 -6.4945728031e+01 -7.3556818050e-02 -3.7845752127e+01  7.5168895523e+01  3.3000000000e-01 0. 9.
#pdf   21   21  3.961997e-02  3.145146e-02  2.289982e+02  2.411047e+00  3.034258e+00
</event>
<event>
    12  9999  1.000000e+00  2.354380e+02  7.902477e-03  1.036831e-01
       21    -1     0     0   101   102  0.0000000000e+00  0.0000000000e+00  1.6855690949e+02  1.6855690949e+02  0.0000000000e+00 0. 9.
       21    -1     0     0   103   101  0.0000000000e+00  0.0000000000e+00 -3.2950942201e+02  3.2950942201e+02  0.0000000000e+00 0. 9.
        6     2     1     2   103     0 -1.3358718517e+02  6.9775202284e+01 -8.6701641004e+01  2.4469863208e+02  1.7218051891e+02  4.867906e-14 9.
       -6     2     1     2     0   102  1.3358718517e+02 -6.9775202284e+01 -7.4250871507e+01  2.5336769942e+02  1.8965200842e+02  2.679959e-14 9.
       24     2     3     0     0     0 -5.2476503672e+01  4.9163962716e+00  1.7568226732e+01  9.7454438007e+01  8.0067287370e+01  1.135511e-14 9.
        5     1     3     0   103     0 -8.1110681493e+01  6.4858806012e+01 -1.0426986774e+02  1.4724419407e+02  4.8000000000e+00 0. 9.
      -24     2     4     0     0     0  6.7917038045e+01  6.1571621048e-01 -1.0852657425e+02  1.5106758492e+02  8.0189118534e+01  6.708922e-15 9.
       -5     1     4     0     0   102  6.5670147120e+01 -7.0390918494e+01  3.4275702742e+01  1.0230011450e+02  4.8000000000e+00 0. 9.
       -3     1     5     0     0   104 -6.8862212736e+01 -8.5179124183e+00  2.6679132174e+01  7.4341006641e+01  5.0000000000e-01 0. 9.
        4     1     5     0   104     0  1.6385709064e+01  1.3434308690e+01 -9.1109054416e+00  2.3113431365e+01  1.5000000000e+00 0. 9.
        3     1     7     0   105     0  7.3264756863e+01 -2.5152643004e+01 -9.0538736962e+01  1.1915491152e+02  5.0000000000e-01 0. 9.
       -4     1     7     0     0   105 -5.3477188180e+00  2.5768359215e+01 -1.7987837287e+01  3.1912673398e+01  1.5000000000e+00 0. 9.
#pdf   21   21  2.593183e-02  5.069376e-02  2.288236e+02  3.642121e+00  1.856007e+00
</event>
<event>
    12  9999  1.000000e+00  1.725009e+02  7.874411e-03  1.076683e-01
       -1    -1     0     0     0   101  0.0000000000e+00  0.0000000000e+00  1.2930196122e+01  1.2930196122e+01  0.0000000000e+00 0. 9.
        1    -1     0     0   102     0  0.0000000000e+00  0.0000000000e+00 -2.8091616574e+03  2.8091616574e+03  0.0000000000e+00 0. 9.
       -6     2     1     2     0   101 -3.3902769285e+00 -1.9024658109e+01 -7.9833150983e+02  8.1676093522e+02  1.7144035150e+02  1.756030e-13 9.
        6     2     1     2   102     0  3.3902769285e+00  1.9024658109e+01 -1.9978999515e+03  2.0053309183e+03  1.7138974387e+02  2.123193e-13 9.
      -24     2     3     0     0     0  4.9320242226e+01 -5.2546171463e+01 -5.6055126969e+02  5.7086548328e+02  8.0474142521e+01  4.869457e-14 9.
       -5     1     3     0     0   101 -5.2710519154e+01  3.3521513353e+01 -2.3778024013e+02  2.4589545194e+02  4.8000000000e+00 0. 9.
       24     2     4     0     0     0 -5.9331470325e+01  2.6939112652e+01 -1.4676304296e+03  1.4712846076e+03  8.0581508550e+01  7.708002e-14 9.
        5     1     4     0   102     0  6.2721747254e+01 -7.9144545423e+00 -5.3026952190e+02  5.3404631075e+02  4.8000000000e+00 0. 9.
       11     1     5     0     0     0  3.7985102386e+01  1.3907318552e+01 -1.9529502658e+02  1.9944028911e+02  5.1100000000e-04 0. 9.
      -12     1     5     0     0     0  1.1335139839e+01 -6.6453490014e+01 -3.6525624312e+02  3.7142519417e+02  0.0000000000e+00 0. 9.
       -1     1     7     0     0   103 -6.5503177683e+01 -8.3107371470e+00 -1.0752837752e+03  1.0773091667e+03  3.3000000000e-01 0. 9.
        2     1     7     0   103     0  6.1717073583e+00  3.5249849799e+01 -3.9234665441e+02  3.9397544087e+02  3.3000000000e-01 0. 9.
#pdf   -1    1  1.989261e-03  4.321787e-01  1.724757e+02  1.186649e+00  4.994742e-02
</event>
<event>
    12  9999  1.000000e+00  3.458370e+02  7.937449e-03  9.915131e-02
       21    -1     0     0   101   102  0.0000000000e+00  0.0000000000e+00  8.8791548658e+02  8.8791548658e+02  0.0000000000e+00 0. 9.
       21    -1     0     0   103   101  0.0000000000e+00  0.0000000000e+00 -1.6414280577e+02  1.6414280577e+02  0.0000000000e+00 0. 9.
        6     2     1     2   103     0  9.7551997657e+00  3.0045560831e+02  1.3906537126e+02  3.7270755439e+02  1.7088887363e+02  1.936802e-13 9.
       -6     2     1     2     0   102 -9.7551997657e+00 -3.0045560831e+02  5.8470730955e+02  6.7935073796e+02  1.7107323236e+02  4.074546e-16 9.
       24     2     3     0     0     0 -2.3122445296e+01  1.6675185682e+02  1.4528071933e+01  1.8699214946e+02  8.0088512619e+01  8.237600e-14 9.
        5     1     3     0   103     0  3.2877645062e+01  1.3370375149e+02  1.2453729933e+02  1.8571540494e+02  4.8000000000e+00 0. 9.
      -24     2     4     0     0     0  1.6080775007e+01 -5.7556036961e+01  1.6104535875e+02  1.9029022236e+02  8.1874736255e+01  2.073869e-13 9.
       -5     1     4     0     0   102 -2.5835974773e+01 -2.4289957135e+02  4.2366195081e+02  4.8906051560e+02  4.8000000000e+00 0. 9.
       -3     1     5     0     0   104  3.3921005809e+00  1.3931456402e+02  3.4973485164e+01  1.4367828214e+02  5.0000000000e-01 0. 9.
        4     1     5     0   104     0 -2.6514545877e+01  2.7437292800e+01 -2.0445413231e+01  4.3313867311e+01  1.5000000000e+00 0. 9.
        1     1     7     0   105     0  3.7086706942e+01 -1.9429884902e+01  1.3065645358e+02  1.3720117354e+02  3.3000000000e-01 0. 9.
       -2     1     7     0     0   105 -2.1005931935e+01 -3.8126152060e+01  3.0388905167e+01  5.3089048820e+01  3.3000000000e-01 0. 9.
#pdf   21   21  1.366024e-01  2.525274e-02  3.457915e+02  4.829459e-01  3.682790e+00
</event>
<event>
    12  9999  1.000000e+00  5.128192e+02  7.973603e-03  9.490622e-02
       21    -1     0     0   101   102  0.0000000000e+00  0.0000000000e+00  7.5252023899e+01  7.5252023899e+01  0.0000000000e+00 0. 9.
       21    -1     0     0   103   101  0.0000000000e+00  0.0000000000e+00 -3.9084651376e+03  3.9084651376e+03  0.0000000000e+00 0. 9.
        6     2     1     2   103     0 -1.1301816734e+02 -4.7002132830e+02 -1.2688249374e+03  1.3685731915e+03  1.7141383689e+02  7.141853e-14 9.
       -6     2     1     2     0   102  1.1301816734e+02  4.7002132830e+02 -2.5643881763e+03  2.6151439700e+03  1.7087454447e+02  2.711008e-14 9.
       24     2     3     0     0     0 -1.0153208724e+02 -2.5472395413e+02 -8.5771678966e+02  9.0433420292e+02  8.3361872413e+01  1.943854e-13 9.
        5     1     3     0   103     0 -1.1486080099e+01 -2.1529737417e+02 -4.1110814779e+02  4.6423898860e+02  4.8000000000e+00 0. 9.
      -24     2     4     0     0     0  1.0951589961e+02  3.1919161806e+02 -2.0429846332e+03  2.0723304089e+03  8.3006571156e+01  2.864630e-14 9.
       -5     1     4     0     0   102  3.5022677347e+00  1.5082971024e+02 -5.2140354304e+02  5.4281356105e+02  4.8000000000e+00 0. 9.
       -1     1     5     0     0   104 -3.8580288049e+01 -1.7386179227e+02 -6.2865534498e+02  6.5339422488e+02  3.3000000000e-01 0. 9.
        2     1     5     0   104     0 -6.2951799194e+01 -8.0862161861e+01 -2.2906144468e+02  2.5093997804e+02  3.3000000000e-01 0. 9.
       11     1     7     0     0     0  5.0053081988e+01  1.1733125366e+02 -5.5066777749e+02  5.6524944517e+02  5.1100000000e-04 0. 9.
      -12     1     7     0     0     0  5.9462817619e+01  2.0186036441e+02 -1.4923168557e+03  1.5070809638e+03  0.0000000000e+00 0. 9.
#pdf   21   21  1.157723e-02  6.013023e-01  5.127292e+02  7.237913e+00  1.420782e-03
</event>
<event>
    12  9999  1.000000e+00  1.879351e+02  7.882123e-03  1.065397e-01
       -2    -1     0     0     0   101  0.0000000000e+00  0.0000000000e+00  1.8879305541e+01  1.8879305541e+01  0.0000000000e+00 0. 9.
        2    -1     0     0   102     0  0.0000000000e+00  0.0000000000e+00 -2.5697146566e+03  2.5697146566e+03  0.0000000000e+00 0. 9.
       -6     2     1     2     0   101  5.8360282004e+01 -5.0724904983e+01 -1.9491867109e+03  1.9582021044e+03  1.7101961656e+02  9.597442e-15 9.
        6     2     1     2   102     0 -5.8360282004e+01  5.0724904983e+01 -6.0164864011e+02  6.3039185769e+02  1.7156301929e+02  6.276581e-14 9.
      -24     2     3     0     0     0  1.0002058885e+02 -6.1079880818e+01 -1.3254792587e+03  1.3330006707e+03  7.9124288259e+01  2.228611e-13 9.
       -5     1     3     0     0   101 -4.1660306844e+01  1.0354975835e+01 -6.2370745227e+02  6.2520143370e+02  4.8000000000e+00 0. 9.
       24     2     4     0     0     0  1.4224655132e+01  1.4159249997e+01 -1.4527374645e+02  1.6681154773e+02  7.9490916913e+01  1.579070e-13 9.
        5     1     4     0   102     0 -7.2584937136e+01  3.6565654986e+01 -4.5637489366e+02  4.6358030996e+02  4.8000000000e+00 0. 9.
        3     1     5     0   103     0  1.6697274309e+01 -4.8458368152e+01 -3.2969709790e+02  3.3365766705e+02  5.0000000000e-01 0. 9.
       -4     1     5     0     0   103  8.3323314539e+01 -1.2621512666e+01 -9.9578216075e+02  9.9934300367e+02  1.5000000000e+00 0. 9.
       -1     1     7     0     0   104  1.3287532414e+01 -8.5536840798e+00 -1.4310325487e+02  1.4397352007e+02  3.3000000000e-01 0. 9.
        2     1     7     0   104     0  9.3712271826e-01  2.2712934076e+01 -2.1704915890e+00  2.2838027653e+01  3.3000000000e-01 0. 9.
#pdf   -2    2  2.904509e-03  3.953407e-01  1.876876e+02  9.934192e-01  1.906425e-01
</event>
<event>
    12  9999  1.000000e+00  1.715331e+02  7.873905e-03  1.077432e-01
       21    -1     0     0   101   102  0.0000000000e+00  0.0000000000e+00  2.7517763825e+02  2.7517763825e+02  0.0000000000e+00 0. 9.
       21    -1     0     0   103   101  0.0000000000e+00  0.0000000000e+00 -1.1076318025e+02  1.1076318025e+02  0.0000000000e+00 0. 9.
        6     2     1     2   103     0  4.3934101528e+00  3.2405364537e+01  1.1935581410e+02  2.1146745350e+02  1.7147379925e+02  1.424260e-13 9.
       -6     2     1     2     0   102 -4.3934101528e+00 -3.2405364537e+01  4.5058643894e+01  1.7447336499e+02  1.6535193981e+02  5.812973e-14 9.
       24     2     3     0     0     0  2.2525657107e+01  7.1507554007e+00  1.4752490777e+02  1.6924054857e+02  7.9499851173e+01  1.347571e-14 9.
        5     1     3     0   103     0 -1.8132246954e+01  2.5254609136e+01 -2.8169093669e+01  4.2226904935e+01  4.8000000000e+00 0. 9.
      -24     2     4     0     0     0  4.4587435997e+01  2.0692733183e+01  1.4781840504e+01  9.5998808005e+01  8.1123607380e+01  6.852438e-14 9.
       -5     1     4     0     0   102 -4.8980846150e+01 -5.3098097720e+01  3.0276803391e+01  7.8474556989e+01  4.8000000000e+00 0. 9.
       -3     1     5     0     0   104  3.0489389085e+01 -2.3318170625e+01  3.3540140993e+01  5.0975788233e+01  5.0000000000e-01 0. 9.
        4     1     5     0   104     0 -7.9637319784e+00  3.0468926026e+01  1.1398476678e+02  1.1826476034e+02  1.5000000000e+00 0. 9.
        1     1     7     0   105     0 -1.0885944859e+01  1.7420001457e+01 -2.1417222556e+01  2.9677711641e+01  3.3000000000e-01 0. 9.
       -2     1     7     0     0   105  5.5473380856e+01  3.2727317256e+00  3.6199063060e+01  6.6321096364e+01  3.3000000000e-01 0. 9.
#pdf   21   21  4.233502e-02  1.704049e-02  1.685547e+02  2.288463e+00  5.298335e+00
</event>
<event>
    12  9999  1.000000e+00  2.114067e+02  7.892739e-03  1.050282e-01
       21    -1     0     0   101   102  0.0000000000e+00  0.0000000000e+00  2.5294964970e+02  2.5294964970e+02  0.0000000000e+00 0. 9.
       21    -1     0     0   103   101  0.0000000000e+00  0.0000000000e+00 -1.8528081664e+02  1.8528081664e+02  0.0000000000e+00 0. 9.
        6     2     1     2   103     0 -6.7904158932e+01  1.0496430166e+02 -1.3478482400e+01  2.1099000067e+02  1.6943031450e+02  3.968108e-13 9.
       -6     2     1     2     0   102  6.7904158932e+01 -1.0496430166e+02  8.1147315457e+01  2.2724046567e+02  1.7153676868e+02  4.806576e-14 9.
       24     2     3     0     0     0 -1.0010758559e+02  1.0151810044e+02  2.0083707637e+01  1.6410292792e+02  7.8733488613e+01  7.023002e-14 9.
        5     1     3     0   103     0  3.2203426653e+01  3.4462012170e+00 -3.3562190037e+01  4.6887072751e+01  4.8000000000e+00 0. 9.
      -24     2     4     0     0     0 -7.0679010515e+00 -4.6571872759e+01  9.2826670101e+01  1.3137632818e+02  8.0150198796e+01  2.875761e-14 9.
       -5     1     4     0     0   102  7.4972059984e+01 -5.8392428900e+01 -1.1679354644e+01  9.5864137486e+01  4.8000000000e+00 0. 9.
       -3     1     5     0     0   104 -8.7271131239e+01  8.3770614834e+01 -1.5837920224e+01  1.2200350804e+02  5.0000000000e-01 0. 9.
        4     1     5     0   104     0 -1.2836454347e+01  1.7747485608e+01  3.5921627861e+01  4.2099419875e+01  1.5000000000e+00 0. 9.
        3     1     7     0   105     0 -4.4163718525e+00 -5.7118213761e+01  2.4729904280e+01  6.2400423470e+01  5.0000000000e-01 0. 9.
       -4     1     7     0     0   105 -2.6515291989e+00  1.0546341001e+01  6.8096765821e+01  6.8975904712e+01  1.5000000000e+00 0. 9.
#pdf   21   21  3.891533e-02  2.850474e-02  2.105590e+02  2.466573e+00  3.344284e+00
</event>
<event>
    12  9999  1.000000e+00  2.117747e+02  7.892897e-03  1.050062e-01
       21    -1     0     0   101   102  0.0000000000e+00  0.0000000000e+00  3.2758692870e+01  3.2758692870e+01  0.0000000000e+00 0. 9.
       21    -1     0     0   103   101  0.0000000000e+00  0.0000000000e+00 -1.8908621044e+03  1.8908621044e+03  0.0000000000e+00 0. 9.
        6     2     1     2   103     0  1.1818404501e+02 -4.0855571531e+01 -1.4353448418e+03  1.4509313636e+03  1.7131946980e+02  2.306219e-13 9.
       -6     2     1     2     0   102 -1.1818404501e+02  4.0855571531e+01 -4.2275856980e+02  4.7268943376e+02  1.7051054579e+02  8.418768e-16 9.
       24     2     3     0     0     0 -6.9393281400e+00 -2.7514928122e+01 -5.6032104161e+02  5.6689317314e+02  8.1258688961e+01  9.091717e-14 9.
        5     1     3     0   103     0  1.2512337315e+02 -1.3340643409e+01 -8.7502380015e+02  8.8403819041e+02  4.8000000000e+00 0. 9.
      -24     2     4     0     0     0 -5.9860287001e+01 -4.0676183785e+01 -2.5784825406e+02  2.7964140836e+02  8.0472288756e+01  9.835528e-14 9.
       -5     1     4     0     0   102 -5.8323758011e+01  8.1531755317e+01 -1.6491031574e+02  1.9304802540e+02  4.8000000000e+00 0. 9.
       -3     1     5     0     0   104 -5.5921953946e+00 -4.3026290072e+01 -5.3736862744e+02  5.3911763655e+02  5.0000000000e-01 0. 9.
        4     1     5     0   104     0 -1.3471327454e+00  1.5511361950e+01 -2.2952414172e+01  2.7775536583e+01  1.5000000000e+00 0. 9.
        1     1     7     0   105     0 -6.7675261547e+01 -2.4320614170e+00 -1.4045404841e+02  1.5592724125e+02  3.3000000000e-01 0. 9.
       -2     1     7     0     0   105  7.8149745467e+00 -3.8244122368e+01 -1.1739420565e+02  1.2371416711e+02  3.3000000000e-01 0. 9.
#pdf   21   21  5.039799e-03  2.909019e-01  2.114486e+02  1.342191e+01  1.095064e-01
</event>
<event>
    12  9999  1.000000e+00  1.865764e+02  7.881470e-03  1.066343e-01
       21    -1     0     0   101   102  0.0000000000e+00  0.0000000000e+00  4.5396367356e+02  4.5396367356e+02  0.0000000000e+00 0. 9.
       21    -1     0     0   102   103  0.0000000000e+00  0.0000000000e+00 -1.1522821953e+02  1.1522821953e+02  0.0000000000e+00 0. 9.
        6     2     1     2   101     0  5.4310936614e+01  5.1813850186e+01  3.3372483259e+02  3.8214036978e+02  1.7036620974e+02  3.274207e-13 9.
       -6     2     1     2     0   103 -5.4310936614e+01 -5.1813850186e+01  5.0106214439e+00  1.8705152332e+02  1.7125657109e+02  2.798189e-13 9.
       24     2     3     0     0     0  7.7579690911e+01  9.9948063140e-02  2.8998785082e+02  3.1036484350e+02  7.8833774624e+01  1.535117e-13 9.
        5     1     3     0   101     0 -2.3268754297e+01  5.1713902123e+01  4.3736981761e+01  7.1775526281e+01  4.8000000000e+00 0. 9.
      -24     2     4     0     0     0 -5.6728493487e+01 -5.4166994213e+01  6.2637653074e+01  1.2912660085e+02  8.1228186175e+01  3.984089e-14 9.
       -5     1     4     0     0   103  2.4175568736e+00  2.3531440262e+00 -5.7627031630e+01  5.7924922465e+01  4.8000000000e+00 0. 9.
       -3     1     5     0     0   104  6.8530988055e+01  1.8494470988e+01  2.7722866414e+02  2.8617219292e+02  5.0000000000e-01 0. 9.
        4     1     5     0   104     0  9.0487028557e+00 -1.8394522925e+01  1.2759186686e+01  2.4192650576e+01  1.5000000000e+00 0. 9.
        1     1     7     0   105     0  6.4373973304e+00 -2.0938864654e+01  5.2690133374e+01  5.7063431305e+01  3.3000000000e-01 0. 9.
       -2     1     7     0     0   105 -6.3165890818e+01 -3.3228129558e+01  9.9475197003e+00  7.2063169545e+01  3.3000000000e-01 0. 9.
#pdf   21   21  6.984057e-02  1.772742e-02  1.861693e+02  1.304220e+00  5.121578e+00
</event>
<event>
    12  9999  1.000000e+00  2.087131e+02  7.891581e-03  1.051908e-01
       -1    -1     0     0     0   101  0.0000000000e+00  0.0000000000e+00  3.8039480994e+02  3.8039480994e+02  0.0000000000e+00 0. 9.
        1    -1     0     0   102     0  0.0000000000e+00  0.0000000000e+00 -1.2630078116e+02  1.2630078116e+02  0.0000000000e+00 0. 9.
       -6     2     1     2     0   101  1.1784590941e+02  3.2180825568e+01  4.8227794811e+01  2.1158397019e+02  1.6588728809e+02  9.830446e-16 9.
        6     2     1     2   102     0 -1.1784590941e+02 -3.2180825568e+01  2.0586623397e+02  2.9511162092e+02  1.7258823428e+02  6.184785e-14 9.
      -24     2     3     0     0     0  7.6155331439e+01 -3.4074998190e+01  6.3067146531e+01  1.3176426815e+02  8.0147472710e+01  5.188765e-15 9.
       -5     1     3     0     0   101  4.1690577970e+01  6.6255823758e+01 -1.4839351720e+01  7.9819702034e+01  4.8000000000e+00 0. 9.
       24     2     4     0     0     0 -6.9469312485e+01 -5.3896230065e+01  5.1547959712e+01  1.3186633403e+02  8.3670478110e+01  4.297890e-14 9.
        5     1     4     0   102     0 -4.8376596925e+01  2.1715404497e+01  1.5431827425e+02  1.6324528689e+02  4.8000000000e+00 0. 9.
        3     1     5     0   103     0  8.5943200082e+01 -9.8747237402e+00  3.4770166932e+01  9.3236035511e+01  5.0000000000e-01 0. 9.
       -4     1     5     0     0   103 -9.7878686428e+00 -2.4200274450e+01  2.8296979599e+01  3.8528232641e+01  1.5000000000e+00 0. 9.
       -3     1     7     0     0   104 -4.8313081131e+01 -3.4185662085e+01  7.4335754778e+01  9.5020354340e+01  5.0000000000e-01 0. 9.
        4     1     7     0   104     0 -2.1156231354e+01 -1.9710567980e+01 -2.2787795066e+01  3.6845979688e+01  1.5000000000e+00 0. 9.
#pdf   -1    1  5.852228e-02  1.943089e-02  2.060142e+02  1.654358e-01  5.550433e-01
</event>
<event>
    12  9999  1.000000e+00  2.068618e+02  7.890777e-03  1.053041e-01
       21    -1     0     0   101   102  0.0000000000e+00  0.0000000000e+00  1.9288386109e+02  1.9288386109e+02  0.0000000000e+00 0. 9.
       21    -1     0     0   102   103  0.0000000000e+00  0.0000000000e+00 -2.7244927642e+02  2.7244927642e+02  0.0000000000e+00 0. 9.
        6     2     1     2   101     0 -1.0753299370e+02  3.9001363037e+01 -1.4028621923e+02  2.5129345629e+02  1.7430928494e+02  1.803083e-13 9.
       -6     2     1     2     0   103  1.0753299370e+02 -3.9001363037e+01  6.0720803900e+01  2.1403968122e+02  1.7041572127e+02  2.795117e-13 9.
       24     2     3     0     0     0 -1.2174403075e+02 -1.6216645437e+00 -5.1525909616e+01  1.5253305680e+02  7.6073485773e+01  1.288020e-13 9.
        5     1     3     0   101     0  1.4211037051e+01  4.0623027580e+01 -8.8760309614e+01  9.8760399486e+01  4.8000000000e+00 0. 9.
      -24     2     4     0     0     0  1.2467162441e+01 -4.9153009167e+01 -9.2941665487e+00  9.5440759307e+01  8.0318793291e+01  1.337572e-13 9.
       -5     1     4     0     0   103  9.5065831256e+01  1.0151646130e+01  7.0014970449e+01  1.1859892191e+02  4.8000000000e+00 0. 9.
       -1     1     5     0     0   104 -4.0673549914e+01 -3.7010521870e+01 -1.6790370697e+01  5.7499059469e+01  3.3000000000e-01 0. 9.
        2     1     5     0   104     0 -8.1070480834e+01  3.5388857326e+01 -3.4735538919e+01  9.5033997335e+01  3.3000000000e-01 0. 9.
       13     1     7     0     0     0  2.6672140492e+01 -6.2994941143e+00 -3.4242595657e+01  4.3859471336e+01  1.0566000000e-01  7.515622e+04 9.
      -14     1     7     0     0     0 -1.4204978051e+01 -4.2853515052e+01  2.4948429108e+01  5.1581287971e+01  0.0000000000e+00 0. 9.
#pdf   21   21  2.967444e-02  4.191527e-02  2.052461e+02  3.222577e+00  2.288604e+00
</event>
<event>
    12  9999  1.000000e+00  1.864605e+02  7.881414e-03  1.066424e-01
       21    -1     0     0   101   102  0.0000000000e+00  0.0000000000e+00  4.8927267768e+02  4.8927267768e+02  0.0000000000e+00 0. 9.
       21    -1     0     0   103   101  0.0000000000e+00  0.0000000000e+00 -7.1079847547e+01  7.1079847547e+01  0.0000000000e+00 0. 9.
        6     2     1     2   103     0 -6.2707885775e+01 -4.6787859687e+01  2.0511757718e+02  2.7760196034e+02  1.6990657775e+02  3.349578e-14 9.
       -6     2     1     2     0   102  6.2707885775e+01  4.6787859687e+01  2.1307525295e+02  2.8275056489e+02  1.6859844534e+02  7.203477e-15 9.
       24     2     3     0     0     0 -6.8951882930e+01 -8.7284078131e+01  1.9060381987e+02  2.3386844504e+02  7.7406466025e+01  9.400204e-14 9.
        5     1     3     0   103     0  6.2439971551e+00  4.0496218444e+01  1.4513757306e+01  4.3733515293e+01  4.8000000000e+00 0. 9.
      -24     2     4     0     0     0  1.0028844988e+02  6.4546938360e+01  1.6953547466e+02  2.2236483836e+02  8.0496979703e+01  4.701828e-14 9.
       -5     1     4     0     0   102 -3.7580564109e+01 -1.7759078673e+01  4.3539778298e+01  6.0385726528e+01  4.8000000000e+00 0. 9.
       -3     1     5     0     0   104 -3.5615291084e+01 -6.5857671432e+01  1.7659204654e+02  1.9180897463e+02  5.0000000000e-01 0. 9.
        4     1     5     0   104     0 -3.3336591846e+01 -2.1426406699e+01  1.4011773331e+01  4.2059470417e+01  1.5000000000e+00 0. 9.
       13     1     7     0     0     0 -9.5369338936e+00  2.1979749222e+01  1.5824084781e+01  2.8713678050e+01  1.0566000000e-01  9.307539e+05 9.
      -14     1     7     0     0     0  1.0982538378e+02  4.2567189137e+01  1.5371138988e+02  1.9365116031e+02  0.0000000000e+00 0. 9.
#pdf   21   21  7.527272e-02  1.093536e-02  1.858677e+02  1.190761e+00  7.570949e+00
</event>
<event>
    12  9999  1.000000e+00  3.489172e+02  7.938260e-03  9.905154e-02
       21    -1     0     0   101   102  0.0000000000e+00  0.0000000000e+00  3.9435591418e+02  3.9435591418e+02  0.0000000000e+00 0. 9.
       21    -1     0     0   103   101  0.0000000000e+00  0.0000000000e+00 -4.2681819155e+02  4.2681819155e+02  0.0000000000e+00 0. 9.
        6     2     1     2   103     0  1.5629425830e+02 -2.6068150004e+02 -2.3221782903e+02  4.1926206789e+02  1.7167650337e+02  4.718272e-14 9.
       -6     2     1     2     0   102 -1.5629425830e+02  2.6068150004e+02  1.9975555166e+02  4.0191203785e+02  1.7102124461e+02  3.386839e-13 9.
       24     2     3     0     0     0  8.1837137560e+01 -2.4793299064e+02 -1.8250703302e+02  3.2870495574e+02  8.1055819616e+01  3.685557e-14 9.
        5     1     3     0   103     0  7.4457120740e+01 -1.2748509396e+01 -4.9710796002e+01  9.0557112144e+01  4.8000000000e+00 0. 9.
      -24     2     4     0     0     0 -2.4249504554e+01  5.3463399116e+01  3.7881889539e+01  1.0763108224e+02  8.1872088001e+01  1.080911e-13 9.
       -5     1     4     0     0   102 -1.3204475375e+02  2.0721810092e+02  1.6187366212e+02  2.9428095560e+02  4.8000000000e+00 0. 9.
      -15     1     5     0     0     0  1.2218412894e+01 -1.6001270251e+02 -1.1930631305e+02  1.9997626860e+02  1.7768200000e+00  2.682283e-01 9.
       16     1     5     0     0     0  6.9618724666e+01 -8.7920288129e+01 -6.3200719972e+01  1.2872868714e+02  0.0000000000e+00 0. 9.
        3     1     7     0   104     0  1.3630111130e+01  5.3467903732e+01  4.2213148551e+01  6.9475150734e+01  5.0000000000e-01 0. 9.
       -4     1     7     0     0   104 -3.7879615684e+01 -4.5046161057e-03 -4.3312590128e+00  3.8155931509e+01  1.5000000000e+00 0. 9.
#pdf   21   21  6.067014e-02  6.566434e-02  3.487564e+02  1.468830e+00  1.336029e+00
</event>
<event>
    12  9999  1.000000e+00  1.779650e+02  7.877216e-03  1.072548e-01
       21    -1     0     0   101   102  0.0000000000e+00  0.0000000000e+00  3.9175914889e+02  3.9175914889e+02  0.0000000000e+00 0. 9.
       21    -1     0     0   102   103  0.0000000000e+00  0.0000000000e+00 -9.4917044800e+01  9.4917044800e+01  0.0000000000e+00 0. 9.
        6     2     1     2   101     0  2.5992071419e+01  4.2861591236e+01  2.4182206945e+02  3.0000387864e+02  1.7032824235e+02  2.883936e-13 9.
       -6     2     1     2     0   103 -2.5992071419e+01 -4.2861591236e+01  5.5020034632e+01  1.8667231505e+02  1.7119183746e+02  1.113882e-13 9.
       24     2     3     0     0     0  2.5526829979e+01 -9.9146375302e+00  1.3304083097e+02  1.7899997532e+02  1.1658134230e+02  9.012452e-14 9.
        5     1     3     0   101     0  4.6524144028e-01  5.2776228767e+01  1.0878123848e+02  1.2100390332e+02  4.8000000000e+00 0. 9.
      -24     2     4     0     0     0 -7.9979385540e+01 -6.6120431904e+00  2.7561951633e+01  1.1592172394e+02  7.8979514293e+01  6.955481e-14 9.
       -5     1     4     0     0   103  5.3987314121e+01 -3.6249548046e+01  2.7458082999e+01  7.0750591103e+01  4.8000000000e+00 0. 9.
       -1     1     5     0     0   104  2.7411482365e+01  2.7616140570e+01  1.3585249007e+02  1.4131542217e+02  3.3000000000e-01 0. 9.
        2     1     5     0   104     0 -1.8846523864e+00 -3.7530778101e+01 -2.8116590937e+00  3.7684553153e+01  3.3000000000e-01 0. 9.
       15     1     7     0     0     0 -3.0829010968e+01 -1.1567810502e+01  5.1402191724e+01  6.1070324712e+01  1.7768200000e+00  1.558528e-02 9.
      -16     1     7     0     0     0 -4.9150374572e+01  4.9557673116e+00 -2.3840240091e+01  5.4851399233e+01  0.0000000000e+00 0. 9.
#pdf   21   21  6.027064e-02  1.460262e-02  1.775512e+02  1.555735e+00  6.016116e+00
</event>
<event>
    12  9999  1.000000e+00  2.349896e+02  7.902304e-03  1.037066e-01
       21    -1     0     0   101   102  0.0000000000e+00  0.0000000000e+00  5.0316163427e+01  5.0316163427e+01  0.0000000000e+00 0. 9.
       21    -1     0     0   103   101  0.0000000000e+00  0.0000000000e+00 -1.4833686850e+03  1.4833686850e+03  0.0000000000e+00 0. 9.
        6     2     1     2   103     0 -1.7287458984e+01 -1.6204945238e+02 -1.1089692389e+03  1.1337141813e+03  1.7010640966e+02  1.091809e-13 9.
       -6     2     1     2     0   102  1.7287458984e+01  1.6204945238e+02 -3.2408328260e+02  3.9997066714e+02  1.6848643642e+02  1.418962e-13 9.
       24     2     3     0     0     0 -5.9609749359e+01 -4.7224992768e+01 -6.1210767637e+02  6.2198155072e+02  8.0010748102e+01  4.857194e-15 9.
        5     1     3     0   103     0  4.2322290376e+01 -1.1482445961e+02 -4.9686156258e+02  5.1173263054e+02  4.8000000000e+00 0. 9.
      -24     2     4     0     0     0  7.4831292713e+00  8.0268157863e+01 -2.8838350845e+02  3.1007173006e+02  8.0501276051e+01  2.117157e-13 9.
       -5     1     4     0     0   102  9.8043297126e+00  8.1781294517e+01 -3.5699774152e+01  8.9898937082e+01  4.8000000000e+00 0. 9.
      -15     1     5     0     0     0  1.3993993788e+01 -1.5015767965e+01 -2.6041087200e+02  2.6122458632e+02  1.7768200000e+00  5.377220e-02 9.
       16     1     5     0     0     0 -7.3603743147e+01 -3.2209224803e+01 -3.5169680436e+02  3.6075696440e+02  0.0000000000e+00 0. 9.
        3     1     7     0   104     0 -3.3188070379e+01  1.4636030476e+01 -8.0069827830e+01  8.7903860736e+01  5.0000000000e-01 0. 9.
       -4     1     7     0     0   104  4.0671199650e+01  6.5632127387e+01 -2.0831368062e+02  2.2216786932e+02  1.5000000000e+00 0. 9.
#pdf   21   21  7.740948e-03  2.282106e-01  2.344068e+02  9.873298e+00  1.969009e-01
</event>
<event>
    12  9999  1.000000e+00  1.783633e+02  7.877417e-03  1.072253e-01
       21    -1     0     0   101   102  0.0000000000e+00  0.0000000000e+00  5.5385669507e+02  5.5385669507e+02  0.0000000000e+00 0. 9.
       21    -1     0     0   102   103  0.0000000000e+00  0.0000000000e+00 -8.3023195792e+01  8.3023195792e+01  0.0000000000e+00 0. 9.
        6     2     1     2   101     0 -2.7899224721e-01 -4.7984022831e+01  4.1194629019e+02  4.4879839042e+02  1.7151590294e+02  2.516784e-14 9.
       -6     2     1     2     0   103  2.7899224721e-01  4.7984022831e+01  5.8887209082e+01  1.8808150044e+02  1.7205930120e+02  4.617235e-14 9.
       24     2     3     0     0     0 -1.7898790876e+01  3.4289079384e+01  1.6147523222e+02  1.8452937686e+02  8.0502997594e+01  2.010317e-14 9.
        5     1     3     0   101     0  1.7619798628e+01 -8.2273102215e+01  2.5047105797e+02  2.6426901357e+02  4.8000000000e+00 0. 9.
      -24     2     4     0     0     0  1.8755955195e+01 -3.7688043503e+01  3.9215342632e+01  9.8130828179e+01  7.9496175147e+01  3.151895e-14 9.
       -5     1     4     0     0   103 -1.8476962948e+01  8.5672066334e+01  1.9671866449e+01  8.9950672256e+01  4.8000000000e+00 0. 9.
       -1     1     5     0     0   104  7.7353422327e+00  1.0285248068e+01 -5.4280155455e+00  1.3971188211e+01  3.3000000000e-01 0. 9.
        2     1     5     0   104     0 -2.5634133108e+01  2.4003831316e+01  1.6690324777e+02  1.7055818865e+02  3.3000000000e-01 0. 9.
        3     1     7     0   105     0 -3.0514951904e+01 -6.8245740560e+00  8.7391182108e+00  3.2470899092e+01  5.0000000000e-01 0. 9.
       -4     1     7     0     0   105  4.9270907099e+01 -3.0863469447e+01  3.0476224422e+01  6.5659929087e+01  1.5000000000e+00 0. 9.
#pdf   21   21  8.520872e-02  1.277280e-02  1.781018e+02  1.022682e+00  6.699882e+00
</event>
<event>
    12  9999  1.000000e+00  2.197405e+02  7.896233e-03  1.045411e-01
       21    -1     0     0   101   102  0.0000000000e+00  0.0000000000e+00  3.5530747424e+02  3.5530747424e+02  0.0000000000e+00 0. 9.
       21    -1     0     0   102   103  0.0000000000e+00  0.0000000000e+00 -1.9127153466e+02  1.9127153466e+02  0.0000000000e+00 0. 9.
        6     2     1     2   101     0  9.9313602082e+01 -9.7704004788e+01  2.2928976383e+02  3.1819139319e+02  1.7106344668e+02  1.032488e-13 9.
       -6     2     1     2     0   103 -9.9313602082e+01  9.7704004788e+01 -6.5253824249e+01  2.2838761571e+02  1.6880040676e+02  3.341649e-14 9.
       24     2     3     0     0     0  1.2084281529e+02 -8.9653266296e+01  1.4409053566e+02  2.2981566183e+02  9.7017842645e+01  2.756411e-14 9.
        5     1     3     0   101     0 -2.1529213204e+01 -8.0507384923e+00  8.5199228179e+01  8.8375731361e+01  4.8000000000e+00 0. 9.
      -24     2     4     0     0     0 -3.6464051892e+01  1.1446622202e+02 -7.0569006707e+01  1.6294810891e+02  8.4498274701e+01  1.379425e-13 9.
       -5     1     4     0     0   103 -6.2849550191e+01 -1.6762217231e+01  5.3151824587e+00  6.5439506800e+01  4.8000000000e+00 0. 9.
      -11     1     5     0     0     0  1.4203097061e+01 -6.7950584000e+01  6.6770193912e+01  9.6318578827e+01  5.1100000000e-04 0. 9.
       12     1     5     0     0     0  1.0663971822e+02 -2.1702682296e+01  7.7320341743e+01  1.3349708300e+02  0.0000000000e+00 0. 9.
       11     1     7     0     0     0 -1.9236796579e+01  1.1139989114e+02 -2.7333706397e+01  1.1630615459e+02  5.1100000000e-04 0. 9.
      -12     1     7     0     0     0 -1.7227255312e+01  3.0663308777e+00 -4.3235300311e+01  4.6641954329e+01  0.0000000000e+00 0. 9.
#pdf   21   21  5.466269e-02  2.942639e-02  2.188672e+02  1.712298e+00  3.240293e+00
</event>
<event>
    12  9999  1.000000e+00  3.577799e+02  7.940552e-03  9.877038e-02
       21    -1     0     0   101   102  0.0000000000e+00  0.0000000000e+00  1.4273956670e+02  1.4273956670e+02  0.0000000000e+00 0. 9.
       21    -1     0     0   103   101  0.0000000000e+00  0.0000000000e+00 -9.4040578743e+02  9.4040578743e+02  0.0000000000e+00 0. 9.
        6     2     1     2   103     0 -1.2920751904e+02  2.8662783459e+02 -2.8209856044e+02  4.5554741199e+02  1.7056889584e+02  8.441525e-14 9.
       -6     2     1     2     0   102  1.2920751904e+02 -2.8662783459e+02 -5.1556766029e+02  6.2759794214e+02  1.7093585374e+02  1.308579e-13 9.
       24     2     3     0     0     0 -5.2334994994e+01  6.0030052959e+01 -1.2668280112e+02  1.7018266672e+02  8.1062007097e+01  4.313570e-14 9.
        5     1     3     0   103     0 -7.6872524050e+01  2.2659778163e+02 -1.5541575932e+02  2.8536474526e+02  4.8000000000e+00 0. 9.
      -24     2     4     0     0     0  3.4664906273e+01 -4.4633677452e+01 -1.5444883852e+02  1.8270545944e+02  7.9580275825e+01  5.220700e-14 9.
       -5     1     4     0     0   102  9.4542612771e+01 -2.4199415714e+02 -3.6111882178e+02  4.4489248270e+02  4.8000000000e+00 0. 9.
       -3     1     5     0     0   104 -1.7546261918e+01  2.4483072664e+01  3.9595464483e+00  3.0384538213e+01  5.0000000000e-01 0. 9.
        4     1     5     0   104     0 -3.4788733077e+01  3.5546980295e+01 -1.3064234757e+02  1.3979812851e+02  1.5000000000e+00 0. 9.
        3     1     7     0   105     0  1.8868456743e+01 -4.3534358417e+01 -2.7661219193e+01  5.4924057296e+01  5.0000000000e-01 0. 9.
       -4     1     7     0     0   105  1.5796449530e+01 -1.0993190344e+00 -1.2678761932e+02  1.2778140214e+02  1.5000000000e+00 0. 9.
#pdf   21   21  2.195993e-02  1.446778e-01  3.576924e+02  4.186036e+00  4.376485e-01
</event>
<event>
    12  9999  1.000000e+00  1.979953e+02  7.886824e-03  1.058646e-01
       21    -1     0     0   101   102  0.0000000000e+00  0.0000000000e+00  1.1482457443e+02  1.1482457443e+02  0.0000000000e+00 0. 9.
       21    -1     0     0   103   101  0.0000000000e+00  0.0000000000e+00 -1.6706849446e+03  1.6706849446e+03  0.0000000000e+00 0. 9.
        6     2     1     2   103     0  5.5309153015e+01 -8.2378678055e+01 -1.5743984281e+03  1.5868211612e+03  1.7153902835e+02  1.562391e-13 9.
       -6     2     1     2     0   102 -5.5309153015e+01  8.2378678055e+01  1.8538057886e+01  1.9868835787e+02  1.7113753229e+02  8.903921e-14 9.
       24     2     3     0     0     0  1.4996887456e+00 -1.1045970529e+02 -1.1777447694e+03  1.1855218122e+03  7.8585175750e+01  5.827957e-14 9.
        5     1     3     0   103     0  5.3809464270e+01  2.8081027232e+01 -3.9665365866e+02  4.0129934894e+02  4.8000000000e+00 0. 9.
      -24     2     4     0     0     0  2.7522610187e+01  3.0021614298e+01 -1.9963371664e+01  9.3294984278e+01  8.1526845190e+01  2.366641e-13 9.
       -5     1     4     0     0   102 -8.2831763203e+01  5.2357063757e+01  3.8501429550e+01  1.0539337360e+02  4.8000000000e+00 0. 9.
       -1     1     5     0     0   104  1.6199958325e+01 -4.3531260066e+01 -1.9765462790e+02  2.0303908511e+02  3.3000000000e-01 0. 9.
        2     1     5     0   104     0 -1.4700269580e+01 -6.6928445221e+01 -9.8009014151e+02  9.8248272712e+02  3.3000000000e-01 0. 9.
        3     1     7     0   105     0 -7.4326935626e+00  2.6142580593e+01 -4.3253376798e+01  5.1086045629e+01  5.0000000000e-01 0. 9.
       -4     1     7     0     0   105  3.4955303750e+01  3.8790337045e+00  2.3290005134e+01  4.2208938649e+01  1.5000000000e+00 0. 9.
#pdf   21   21  1.766532e-02  2.570285e-01  1.978216e+02  5.133073e+00  1.545454e-01
</event>
<event>
    12  9999  1.000000e+00  1.727792e+02  7.874556e-03  1.076468e-01
       21    -1     0     0   101   102  0.0000000000e+00  0.0000000000e+00  5.9330168975e+02  5.9330168975e+02  0.0000000000e+00 0. 9.
       21    -1     0     0   102   103  0.0000000000e+00  0.0000000000e+00 -6.6281629769e+01  6.6281629769e+01  0.0000000000e+00 0. 9.
        6     2     1     2   101     0  7.5335312975e+00  2.1937678829e+01  4.2546337035e+02  4.5923868613e+02  1.7129820631e+02  2.303154e-13 9.
       -6     2     1     2     0   103 -7.5335312975e+00 -2.1937678829e+01  1.0155668963e+02  2.0034463338e+02  1.7113209831e+02  1.457149e-13 9.
       24     2     3     0     0     0  5.7027836529e+00 -7.6193965658e+00  7.9577151386e+01  1.1205388115e+02  7.8313295882e+01  2.718445e-14 9.
        5     1     3     0   101     0  1.8307476446e+00  2.9557075395e+01  3.4588621897e+02  3.4718480499e+02  4.8000000000e+00 0. 9.
      -24     2     4     0     0     0 -1.1904859880e+01 -1.2265115611e+01 -1.4602106557e+01  8.3603154364e+01  8.0523953915e+01  1.074075e-13 9.
       -5     1     4     0     0   103  4.3713285821e+00 -9.6725632177e+00  1.1615879618e+02  1.1674147902e+02  4.8000000000e+00 0. 9.
       -1     1     5     0     0   104  4.0797608469e+01  3.4401330862e+00  3.2338767446e+01  5.2174554645e+01  3.3000000000e-01 0. 9.
        2     1     5     0   104     0 -3.5094824816e+01 -1.1059529652e+01  4.7238383941e+01  5.9879326502e+01  3.3000000000e-01 0. 9.
       13     1     7     0     0     0  3.0843596972e+01  2.3839859233e+00  9.5352217211e+00  3.2371939706e+01  1.0566000000e-01  1.122431e+06 9.
      -14     1     7     0     0     0 -4.2748456851e+01 -1.4649101534e+01 -2.4137328278e+01  5.1231214658e+01  0.0000000000e+00 0. 9.
#pdf   21   21  9.127718e-02  1.019717e-02  1.726969e+02  9.379523e-01  7.981624e+00
</event>
<event>
    12  9999  1.000000e+00  1.763509e+02  7.876396e-03  1.073753e-01
        1    -1     0     0   101     0  0.0000000000e+00  0.0000000000e+00  2.0398549325e+02  2.0398549325e+02  0.0000000000e+00 0. 9.
       -1    -1     0     0     0   102  0.0000000000e+00  0.0000000000e+00 -1.6024068040e+02  1.6024068040e+02  0.0000000000e+00 0. 9.
        6     2     1     2   101     0  4.5559475470e+01 -3.3864297327e+00  6.2173522952e+01  1.8872826321e+02  1.7223726852e+02  4.860868e-14 9.
       -6     2     1     2     0   102 -4.5559475470e+01  3.3864297327e+00 -1.8428710107e+01  1.7549791043e+02  1.6844217257e+02  4.028260e-13 9.
       24     2     3     0     0     0  7.1607707612e+01 -5.0335623901e+01  6.4313657799e+01  1.3478053474e+02  7.9801047246e+01  1.279081e-14 9.
        5     1     3     0   101     0 -2.6048232142e+01  4.6949194169e+01 -2.1401348463e+00  5.3947728478e+01  4.8000000000e+00 0. 9.
      -24     2     4     0     0     0 -5.1410286799e+01  4.9263972126e+01 -5.0596797581e+01  1.1895759967e+02  8.0752201555e+01  1.460110e-13 9.
       -5     1     4     0     0   102  5.8508113290e+00 -4.5877542393e+01  3.2168087475e+01  5.6540310761e+01  4.8000000000e+00 0. 9.
       -1     1     5     0     0   103  7.8328284190e+01 -5.6392134399e+01  3.2714995050e+01  1.0191061146e+02  3.3000000000e-01 0. 9.
        2     1     5     0   103     0 -6.7205765788e+00  6.0565104972e+00  3.1598662749e+01  3.2869923280e+01  3.3000000000e-01 0. 9.
       11     1     7     0     0     0 -5.6956916700e+01  6.7221260779e+01 -3.6072853894e+01  9.5205246962e+01  5.1100000000e-04 0. 9.
      -12     1     7     0     0     0  5.5466299013e+00 -1.7957288654e+01 -1.4523943687e+01  2.3752352710e+01  0.0000000000e+00 0. 9.
#pdf    1   -1  3.138238e-02  2.465241e-02  1.745276e+02  4.864422e-01  3.192909e-01
</event>
<event>
    12  9999  1.000000e+00  1.831821e+02  7.879816e-03  1.068745e-01
       21    -1     0     0   101   102  0.0000000000e+00  0.0000000000e+00  9.2999208211e+02  9.2999208211e+02  0.0000000000e+00 0. 9.
       21    -1     0     0   103   101  0.0000000000e+00  0.0000000000e+00 -5.7007920624e+01  5.7007920624e+01  0.0000000000e+00 0. 9.
        6     2     1     2   103     0  5.2114357656e+01 -4.0265134619e+01  1.3835039346e+02  2.3000833468e+02  1.7153954446e+02  6.609869e-13 9.
       -6     2     1     2     0   102 -5.2114357656e+01  4.0265134619e+01  7.3463376802e+02  7.5699166805e+02  1.7033034092e+02  4.341844e-14 9.
       24     2     3     0     0     0 -6.7788104154e+00 -6.6784595836e+01  9.8251476506e+01  1.5383320613e+02  9.7494451954e+01  7.664528e-14 9.
        5     1     3     0   103     0  5.8893168071e+01  2.6519461217e+01  4.0098916956e+01  7.6175128551e+01  4.8000000000e+00 0. 9.
      -24     2     4     0     0     0 -1.0054577832e+01  8.7580059468e+01  5.0912086794e+02  5.2271227225e+02  7.9074016194e+01  3.612949e-13 9.
       -5     1     4     0     0   102 -4.2059779824e+01 -4.7314924849e+01  2.2551290008e+02  2.3427939579e+02  4.8000000000e+00 0. 9.
       -3     1     5     0     0   104 -4.9321906176e+01 -5.3523415752e+01  5.1054184117e+01  8.8905490148e+01  5.0000000000e-01 0. 9.
        4     1     5     0   104     0  4.2543095761e+01 -1.3261180084e+01  4.7197292389e+01  6.4927715984e+01  1.5000000000e+00 0. 9.
        3     1     7     0   105     0  2.4077542731e+01  8.8925021876e+00  2.0904078262e+02  2.1061126147e+02  5.0000000000e-01 0. 9.
       -4     1     7     0     0   105 -3.4132120563e+01  7.8687557280e+01  3.0008008532e+02  3.1210101078e+02  1.5000000000e+00 0. 9.
#pdf   21   21  1.430757e-01  8.770449e-03  1.826188e+02  4.874952e-01  8.955152e+00
</event>
<event>
    12  9999  1.000000e+00  1.787677e+02  7.877621e-03  1.071954e-01
       21    -1     0     0   101   102  0.0000000000e+00  0.0000000000e+00  1.9403724155e+02  1.9403724155e+02  0.0000000000e+00 0. 9.
       21    -1     0     0   102   103  0.0000000000e+00  0.0000000000e+00 -2.3660392466e+02  2.3660392466e+02  0.0000000000e+00 0. 9.
        6     2     1     2   101     0  2.7241633239e+01  4.2857239957e+01 -1.4002491875e+02  2.2748739019e+02  1.7194384324e+02  1.062691e-13 9.
       -6     2     1     2     0   103 -2.7241633239e+01 -4.2857239957e+01  9.7458235634e+01  2.0315377602e+02  1.7086397929e+02  8.832908e-14 9.
       24     2     3     0     0     0  2.0943204395e+00  7.4334309078e+01 -3.4430074184e+01  1.1436575468e+02  7.9775435765e+01  8.926677e-14 9.
        5     1     3     0   101     0  2.5147312800e+01 -3.1477069122e+01 -1.0559484457e+02  1.1312163551e+02  4.8000000000e+00 0. 9.
      -24     2     4     0     0     0 -4.7632851488e+01 -3.8533786631e+01 -2.6654115342e+00  1.0077077571e+02  7.9961888201e+01  3.066051e-14 9.
       -5     1     4     0     0   103  2.0391218249e+01 -4.3234533261e+00  1.0012364717e+02  1.0238300031e+02  4.8000000000e+00 0. 9.
      -13     1     5     0     0     0  2.8180765835e+01  5.1735082124e+00 -2.8175783855e+01  4.0184657647e+01  1.0566000000e-01  2.205032e+05 9.
       14     1     5     0     0     0 -2.6086445396e+01  6.9160800866e+01 -6.2542903280e+00  7.4181097035e+01  0.0000000000e+00 0. 9.
       15     1     7     0     0     0  9.7763993553e+00 -4.1959445109e+01  1.1251529134e+00  4.3134627350e+01  1.7768200000e+00  1.207437e-01 9.
      -16     1     7     0     0     0 -5.7409250844e+01  3.4256584783e+00 -3.7905644476e+00  5.7636148356e+01  0.0000000000e+00 0. 9.
#pdf   21   21  2.985188e-02  3.640060e-02  1.782508e+02  3.220652e+00  2.658606e+00
</event>
<event>
    12  9999  1.000000e+00  2.159781e+02  7.894672e-03  1.047582e-01
       21    -1     0     0   101   102  0.0000000000e+00  0.0000000000e+00  1.0247725290e+03  1.0247725290e+03  0.0000000000e+00 0. 9.
       21    -1     0     0   102   103  0.0000000000e+00  0.0000000000e+00 -1.0753946611e+02  1.0753946611e+02  0.0000000000e+00 0. 9.
        6     2     1     2   101     0  1.0439721012e+02 -7.9861250045e+01  8.8866162313e+02  9.1455499507e+02  1.7150732304e+02  1.084451e-14 9.
       -6     2     1     2     0   103 -1.0439721012e+02  7.9861250045e+01  2.8571439769e+01  2.1775700005e+02  1.7124598436e+02  9.316772e-14 9.
       24     2     3     0     0     0  8.3616307048e+00 -1.1818102752e+00  1.2213044042e+02  1.3802014021e+02  6.3736967946e+01  7.530909e-14 9.
        5     1     3     0   101     0  9.6035579420e+01 -7.8679439769e+01  7.6653118271e+02  7.7653485487e+02  4.8000000000e+00 0. 9.
      -24     2     4     0     0     0 -1.1376107174e+02  1.1381779182e+02  2.1459159173e+01  1.8150299104e+02  8.1158912420e+01  2.312156e-14 9.
       -5     1     4     0     0   103  9.3638616123e+00 -3.3956541779e+01  7.1122805962e+00  3.6254009008e+01  4.8000000000e+00 0. 9.
      -13     1     5     0     0     0  2.4084246292e+01  2.3781577792e+01  5.3371007312e+01  6.3198812863e+01  1.0566000000e-01  4.871139e+05 9.
       14     1     5     0     0     0 -1.5722615587e+01 -2.4963388068e+01  6.8759433104e+01  7.4821327344e+01  0.0000000000e+00 0. 9.
        1     1     7     0   104     0 -2.5007661349e+01 -7.2438248315e+00 -1.0418741679e+01  2.8044878365e+01  3.3000000000e-01 0. 9.
       -2     1     7     0     0   104 -8.8753410388e+01  1.2106161665e+02  3.1877900852e+01  1.5345811267e+02  3.3000000000e-01 0. 9.
#pdf   21   21  1.576573e-01  1.654453e-02  2.158745e+02  4.061461e-01  5.418597e+00
</event>
<event>
    12  9999  1.000000e+00  1.810600e+02  7.878767e-03  1.070275e-01
       21    -1     0     0   101   102  0.0000000000e+00  0.0000000000e+00  1.4577840273e+02  1.4577840273e+02  0.0000000000e+00 0. 9.
       21    -1     0     0   103   101  0.0000000000e+00  0.0000000000e+00 -2.3307701545e+02  2.3307701545e+02  0.0000000000e+00 0. 9.
        6     2     1     2   103     0  1.9782061328e+01 -5.5404744888e+01 -7.9426144793e+01  1.9880323735e+02  1.7249115629e+02  2.491599e-13 9.
       -6     2     1     2     0   102 -1.9782061328e+01  5.5404744888e+01 -7.8724679253e+00  1.8005218083e+02  1.6998763591e+02  5.631661e-14 9.
       24     2     3     0     0     0  1.3355918591e+01 -9.5002675300e+01 -3.9779716406e+01  1.4219784284e+02  9.7128326438e+01  5.551563e-14 9.
        5     1     3     0   103     0  6.4261427369e+00  3.9597930412e+01 -3.9646428386e+01  5.6605394505e+01  4.8000000000e+00 0. 9.
      -24     2     4     0     0     0  2.6792984186e+01  1.8836940053e+01 -5.7002987976e+01  1.0295946252e+02  7.9237718119e+01  7.905989e-14 9.
       -5     1     4     0     0   102 -4.6575045514e+01  3.6567804835e+01  4.9130520050e+01  7.7092718304e+01  4.8000000000e+00 0. 9.
       -1     1     5     0     0   104  1.2277791742e+01 -1.0610450877e+02 -6.4025834742e+00  1.0700473320e+02  3.3000000000e-01 0. 9.
        2     1     5     0   104     0  1.0781268486e+00  1.1101833470e+01 -3.3377132932e+01  3.5193109648e+01  3.3000000000e-01 0. 9.
        3     1     7     0   105     0  1.6255855312e+01 -3.0125964863e+01 -3.2409599197e+01  4.7142960354e+01  5.0000000000e-01 0. 9.
       -4     1     7     0     0   105  1.0537128875e+01  4.8962904916e+01 -2.4593388779e+01  5.5816502169e+01  1.5000000000e+00 0. 9.
#pdf   21   21  2.242745e-02  3.585800e-02  1.798800e+02  4.181083e+00  2.697345e+00
</event>
<event>
    12  9999  1.000000e+00  2.010175e+02  7.888190e-03  1.056701e-01
       21    -1     0     0   101   102  0.0000000000e+00  0.0000000000e+00  1.4400130498e+02  1.4400130498e+02  0.0000000000e+00 0. 9.
       21    -1     0     0   102   103  0.0000000000e+00  0.0000000000e+00 -3.2313202338e+02  3.2313202338e+02  0.0000000000e+00 0. 9.
        6     2     1     2   101     0 -2.1942211552e+00  1.0592645376e+02 -1.7442596231e+02  2.6640211338e+02  1.7123212745e+02  1.179218e-13 9.
       -6     2     1     2     0   103  2.1942211552e+00 -1.0592645376e+02 -4.7047560992e+00  2.0073121498e+02  1.7042786664e+02  4.256020e-14 9.
       24     2     3     0     0     0  1.6691259664e+01  1.4040393735e+02 -1.4690773967e+02  2.1817711117e+02  7.7637002070e+01  1.668078e-13 9.
        5     1     3     0   101     0 -1.8885480819e+01 -3.4477483593e+01 -2.7518222636e+01  4.8225002206e+01  4.8000000000e+00 0. 9.
      -24     2     4     0     0     0  1.3966112976e+01 -3.8498110012e+01 -6.1482711201e+01  1.1166980267e+02  8.3742846061e+01  2.211059e-14 9.
       -5     1     4     0     0   103 -1.1771891821e+01 -6.7428343744e+01  5.6777955102e+01  8.9061412310e+01  4.8000000000e+00 0. 9.
       -1     1     5     0     0   104  1.0296111419e+01  6.8655631878e+01 -1.2482961922e+02  1.4283608940e+02  3.3000000000e-01 0. 9.
        2     1     5     0   104     0  6.3951482444e+00  7.1748305472e+01 -2.2078120449e+01  7.5341021773e+01  3.3000000000e-01 0. 9.
       13     1     7     0     0     0  4.8996498261e+01 -2.7487548697e+01 -3.2616998727e+01  6.4962311729e+01  1.0566000000e-01  1.535777e+06 9.
      -14     1     7     0     0     0 -3.5030385285e+01 -1.1010561316e+01 -2.8865712474e+01  4.6707490945e+01  0.0000000000e+00 0. 9.
#pdf   21   21  2.215405e-02  4.971262e-02  2.006761e+02  4.216659e+00  1.912315e+00
</event>
<event>
    12  9999  1.000000e+00  1.908915e+02  7.883530e-03  1.063367e-01
       21    -1     0     0   101   102  0.0000000000e+00  0.0000000000e+00  1.5541366623e+02  1.5541366623e+02  0.0000000000e+00 0. 9.
       21    -1     0     0   103   101  0.0000000000e+00  0.0000000000e+00 -2.5012972178e+02  2.5012972178e+02  0.0000000000e+00 0. 9.
        6     2     1     2   103     0 -4.5583493118e+01 -7.2264763977e+01 -9.7973170807e+01  2.1410415831e+02  1.7012288927e+02  2.493201e-14 9.
       -6     2     1     2     0   102  4.5583493118e+01  7.2264763977e+01  3.2571152586e+00  1.9143922970e+02  1.7128432185e+02  2.368360e-13 9.
       24     2     3     0     0     0 -7.4768986162e+01 -3.1757569029e+01 -1.1430122790e+02  1.6135691862e+02  7.9826937850e+01  8.392069e-14 9.
        5     1     3     0   103     0  2.9185493044e+01 -4.0507194948e+01  1.6328057090e+01  5.2747239692e+01  4.8000000000e+00 0. 9.
      -24     2     4     0     0     0  1.2362515019e+01 -2.3892036323e+01 -2.2149892744e+01  8.6471045542e+01  7.9138882929e+01  4.302760e-15 9.
       -5     1     4     0     0   102  3.3220978099e+01  9.6156800300e+01  2.5407008002e+01  1.0496818416e+02  4.8000000000e+00 0. 9.
       -3     1     5     0     0   104  2.7469323474e+00  2.5421835347e+00 -6.1209930745e+01  6.1326290906e+01  5.0000000000e-01 0. 9.
        4     1     5     0   104     0 -7.7515918509e+01 -3.4299752563e+01 -5.3091297152e+01  1.0003062772e+02  1.5000000000e+00 0. 9.
        1     1     7     0   105     0 -2.4038584505e+01  1.5747180349e+01 -1.4243163035e+01  3.2074971975e+01  3.3000000000e-01 0. 9.
       -2     1     7     0     0   105  3.6401099523e+01 -3.9639216672e+01 -7.9067297088e+00  5.4396073567e+01  3.3000000000e-01 0. 9.
#pdf   21   21  2.390979e-02  3.848150e-02  1.903729e+02  3.943912e+00  2.507423e+00
</event>
<event>
    12  9999  1.000000e+00  1.816429e+02  7.879057e-03  1.069853e-01
        1    -1     0     0   101     0  0.0000000000e+00  0.0000000000e+00  1.2138105308e+03  1.2138105308e+03  0.0000000000e+00 0. 9.
       -1    -1     0     0     0   102  0.0000000000e+00  0.0000000000e+00 -3.7280267491e+01  3.7280267491e+01  0.0000000000e+00 0. 9.
        6     2     1     2   101     0  1.3281034810e+01  4.1446933631e+01  2.4616200518e+02  3.0168327366e+02  1.6888703508e+02  3.045293e-13 9.
       -6     2     1     2     0   102 -1.3281034810e+01 -4.1446933631e+01  9.3036825815e+02  9.4940752465e+02  1.8410681114e+02  6.155226e-15 9.
       24     2     3     0     0     0 -5.7723578011e+00 -3.4433679448e+01  1.7611948279e+02  1.9656479691e+02  8.0004054713e+01  4.873514e-14 9.
        5     1     3     0   101     0  1.9053392611e+01  7.5880613079e+01  7.0042522394e+01  1.0511847675e+02  4.8000000000e+00 0. 9.
      -24     2     4     0     0     0 -1.4098996359e+01  4.0799761888e+01  2.9816742997e+02  3.1186057334e+02  8.0559286487e+01  5.205448e-14 9.
       -5     1     4     0     0   102  8.1796154855e-01 -8.2246695519e+01  6.3220082817e+02  6.3754695131e+02  4.8000000000e+00 0. 9.
       -1     1     5     0     0   103 -9.6297042071e+00  1.6075002963e+01  6.9746714715e+00  1.9997296455e+01  3.3000000000e-01 0. 9.
        2     1     5     0   103     0  3.8573464060e+00 -5.0508682412e+01  1.6914481132e+02  1.7656750045e+02  3.3000000000e-01 0. 9.
        1     1     7     0   104     0 -9.1373409225e+00 -1.6224028711e+01  1.7980846912e+01  2.5886866601e+01  3.3000000000e-01 0. 9.
       -2     1     7     0     0   104 -4.9616554361e+00  5.7023790599e+01  2.8018658306e+02  2.8597370674e+02  3.3000000000e-01 0. 9.
#pdf    1   -1  1.867401e-01  5.735426e-03  1.744049e+02  2.379479e-01  7.212424e-01
</event>
<event>
    12  9999  1.000000e+00  1.871781e+02  7.881760e-03  1.065923e-01
       21    -1     0     0   101   102  0.0000000000e+00  0.0000000000e+00  9.7364379452e+01  9.7364379452e+01  0.0000000000e+00 0. 9.
       21    -1     0     0   102   103  0.0000000000e+00  0.0000000000e+00 -3.8930117891e+02  3.8930117891e+02  0.0000000000e+00 0. 9.
        6     2     1     2   101     0 -7.4673184214e+01  7.7852238592e+00 -7.8580776165e+01  2.0242486491e+02  1.7077527163e+02  1.804287e-13 9.
       -6     2     1     2     0   103  7.4673184214e+01 -7.7852238592e+00 -2.1335602329e+02  2.8424069345e+02  1.7214901971e+02  5.769821e-14 9.
       24     2     3     0     0     0 -5.6030244960e+01  1.5991776874e+00 -1.2000694753e+02  1.5632720743e+02  8.3033623349e+01  2.525319e-13 9.
        5     1     3     0   101     0 -1.8642939254e+01  6.1860461718e+00  4.1426171369e+01  4.6097657485e+01  4.8000000000e+00 0. 9.
      -24     2     4     0     0     0  1.0525430130e+02 -3.6954355639e+01 -1.9308367382e+02  2.3712327497e+02  8.0635290619e+01  1.843928e-13 9.
       -5     1     4     0     0   103 -3.0581117088e+01  2.9169131779e+01 -2.0272349475e+01  4.7117418481e+01  4.8000000000e+00 0. 9.
       -3     1     5     0     0   104 -2.3509418341e+01  2.8403078570e+01 -9.5444490575e+00  3.8089029008e+01  5.0000000000e-01 0. 9.
        4     1     5     0   104     0 -3.2520826619e+01 -2.6803900882e+01 -1.1046249848e+02  1.1823817842e+02  1.5000000000e+00 0. 9.
        1     1     7     0   105     0  9.4874255664e+01 -2.0830865728e+00 -1.0343461156e+02  1.4037197514e+02  3.3000000000e-01 0. 9.
       -2     1     7     0     0   105  1.0380045639e+01 -3.4871269066e+01 -8.9649062261e+01  9.6751299826e+01  3.3000000000e-01 0. 9.
#pdf   21   21  1.497914e-02  5.989249e-02  1.865500e+02  5.891924e+00  1.561556e+00
</event>
<event>
    12  9999  1.000000e+00  2.106209e+02  7.892403e-03  1.050754e-01
       21    -1     0     0   101   102  0.0000000000e+00  0.0000000000e+00  7.5880742814e+02  7.5880742814e+02  0.0000000000e+00 0. 9.
       21    -1     0     0   103   101  0.0000000000e+00  0.0000000000e+00 -6.1207751573e+01  6.1207751573e+01  0.0000000000e+00 0. 9.
        6     2     1     2   103     0  1.2076945494e+02 -2.1363379444e+01  2.6194481540e+02  3.3611535584e+02  1.7122146737e+02  1.391207e-14 9.
       -6     2     1     2     0   102 -1.2076945494e+02  2.1363379444e+01  4.3565486117e+02  4.8389982388e+02  1.7123733896e+02  1.346475e-13 9.
       24     2     3     0     0     0  4.5425407753e+01  4.8125991633e+01  9.8743729888e+01  1.4333793898e+02  8.0099075018e+01  9.685332e-14 9.
        5     1     3     0   103     0  7.5344047189e+01 -6.9489371077e+01  1.6320108551e+02  1.9277741686e+02  4.8000000000e+00 0. 9.
      -24     2     4     0     0     0 -1.1103902462e+02  7.5175806030e+01  3.4576036193e+02  3.7856929875e+02  7.6048795345e+01  2.612930e-13 9.
       -5     1     4     0     0   102 -9.7304303239e+00 -5.3812426586e+01  8.9894499245e+01  1.0533052513e+02  4.8000000000e+00 0. 9.
      -13     1     5     0     0     0  4.8373635637e+01  2.0782511178e+00  8.0047984510e+01  9.3552224670e+01  1.0566000000e-01  8.574953e+05 9.
       14     1     5     0     0     0 -2.9482278846e+00  4.6047740515e+01  1.8695745378e+01  4.9785714311e+01  0.0000000000e+00 0. 9.
        3     1     7     0   104     0 -2.4150908474e+01  4.0223085185e+01  5.1069445128e+01  6.9350567320e+01  5.0000000000e-01 0. 9.
       -4     1     7     0     0   104 -8.6888116145e+01  3.4952720845e+01  2.9469091680e+02  3.0921873143e+02  1.5000000000e+00 0. 9.
#pdf   21   21  1.167396e-01  9.416577e-03  2.106144e+02  6.530459e-01  8.505172e+00
</event>
<event>
    12  9999  1.000000e+00  1.893669e+02  7.882807e-03  1.064409e-01
       21    -1     0     0   101   102  0.0000000000e+00  0.0000000000e+00  2.0258023459e+02  2.0258023459e+02  0.0000000000e+00 0. 9.
       21    -1     0     0   102   103  0.0000000000e+00  0.0000000000e+00 -1.8888365700e+02  1.8888365700e+02  0.0000000000e+00 0. 9.
        6     2     1     2   101     0  5.4839665089e+01 -6.0142907122e+01  5.5915393456e+01  1.9755691687e+02  1.7110711860e+02  2.179145e-13 9.
       -6     2     1     2     0   103 -5.4839665089e+01  6.0142907122e+01 -4.2218815874e+01  1.9390697472e+02  1.7085938162e+02  2.094799e-13 9.
       24     2     3     0     0     0  8.7371633272e+01 -5.9496307970e+01  8.1571485982e+01  1.5584334440e+02  8.0371809157e+01  9.426200e-16 9.
        5     1     3     0   101     0 -3.2531968183e+01 -6.4659915209e-01 -2.5656092526e+01  4.1713572468e+01  4.8000000000e+00 0. 9.
      -24     2     4     0     0     0 -7.9960573238e+01  8.0046224835e+00 -6.3980090176e+01  1.3189041394e+02  8.2727638050e+01  3.523760e-13 9.
       -5     1     4     0     0   103  2.5120908149e+01  5.2138284639e+01  2.1761274301e+01  6.2016560776e+01  4.8000000000e+00 0. 9.
       -3     1     5     0     0   104 -8.5989347735e+00  6.9308145340e+00  2.2390143471e+01  2.4970910956e+01  5.0000000000e-01 0. 9.
        4     1     5     0   104     0  9.5970568046e+01 -6.6427122504e+01  5.9181342511e+01  1.3087243345e+02  1.5000000000e+00 0. 9.
       15     1     7     0     0     0  1.6065332799e+00  2.9301597013e+01 -2.6698164321e+01  3.9712889647e+01  1.7768200000e+00  4.782281e-02 9.
      -16     1     7     0     0     0 -8.1567106518e+01 -2.1296974529e+01 -3.7281925855e+01  9.2177524296e+01  0.0000000000e+00 0. 9.
#pdf   21   21  3.116619e-02  2.905902e-02  1.892551e+02  3.084917e+00  3.296789e+00
</event>
<event>
    12  9999  1.000000e+00  1.813208e+02  7.878897e-03  1.070086e-01
       21    -1     0     0   101   102  0.0000000000e+00  0.0000000000e+00  7.2186753588e+02  7.2186753588e+02  0.0000000000e+00 0. 9.
       21    -1     0     0   102   103  0.0000000000e+00  0.0000000000e+00 -5.7557465958e+01  5.7557465958e+01  0.0000000000e+00 0. 9.
        6     2     1     2   101     0 -6.2406695758e+01  2.5215848788e+01  5.1371567706e+02  5.4561296024e+02  1.7105341511e+02  6.963291e-14 9.
       -6     2     1     2     0   103  6.2406695758e+01 -2.5215848788e+01  1.5059439286e+02  2.3381204160e+02  1.6570746793e+02  6.378943e-14 9.
       24     2     3     0     0     0 -6.4449444426e+01  4.7026010073e+01  5.1046525707e+02  5.2295327826e+02  8.0871354985e+01  9.938460e-14 9.
        5     1     3     0   101     0  2.0427486678e+00 -2.1810161285e+01  3.2504199908e+00  2.2659681982e+01  4.8000000000e+00 0. 9.
      -24     2     4     0     0     0  9.4011996254e+01 -1.5805895619e+00  1.4492620980e+02  1.9365374485e+02  8.7506644921e+01  1.667551e-13 9.
       -5     1     4     0     0   103 -3.1605300495e+01 -2.3635259226e+01  5.6681830595e+00  4.0158296743e+01  4.8000000000e+00 0. 9.
       -3     1     5     0     0   104  1.6339618182e+01  1.3087203210e+01  4.9771662983e+01  5.3997467036e+01  5.0000000000e-01 0. 9.
        4     1     5     0   104     0 -8.0789062608e+01  3.3938806863e+01  4.6069359409e+02  4.6895581122e+02  1.5000000000e+00 0. 9.
        1     1     7     0   105     0  2.7660965511e+01 -3.0324977923e+01  1.0106055880e+02  1.0907831473e+02  3.3000000000e-01 0. 9.
       -2     1     7     0     0   105  6.6351030743e+01  2.8744388361e+01  4.3865650998e+01  8.4575430122e+01  3.3000000000e-01 0. 9.
#pdf   21   21  1.110565e-01  8.854995e-03  1.788558e+02  7.149745e-01  8.887239e+00
</event>
<event>
    12  9999  1.000000e+00  2.724141e+02  7.915708e-03  1.019153e-01
       21    -1     0     0   101   102  0.0000000000e+00  0.0000000000e+00  4.2396611801e+02  4.2396611801e+02  0.0000000000e+00 0. 9.
       21    -1     0     0   102   103  0.0000000000e+00  0.0000000000e+00 -2.9948913953e+02  2.9948913953e+02  0.0000000000e+00 0. 9.
        6     2     1     2   101     0  2.0991821393e+02  3.0060745608e+01  2.9570392209e+02  4.0358908360e+02  1.7456813540e+02  1.977863e-14 9.
       -6     2     1     2     0   103 -2.0991821393e+02 -3.0060745608e+01 -1.7122694362e+02  3.1986617394e+02  1.6741086596e+02  4.225107e-13 9.
       24     2     3     0     0     0  9.5159755854e+01  2.6522334777e+01  6.3896311172e+01  1.4486175120e+02  8.4518489120e+01  8.227051e-14 9.
        5     1     3     0   101     0  1.1475845808e+02  3.5384108305e+00  2.3180761092e+02  2.5872733240e+02  4.8000000000e+00 0. 9.
      -24     2     4     0     0     0 -1.2459412956e+02 -5.9618175711e+01 -1.6413160963e+02  2.2916212324e+02  8.0610603852e+01  6.384830e-14 9.
       -5     1     4     0     0   103 -8.5324084370e+01  2.9557430103e+01 -7.0953339870e+00  9.0704050694e+01  4.8000000000e+00 0. 9.
       -1     1     5     0     0   104  5.9612918882e+00 -9.4922931918e-01  5.0159711462e+01  5.0522703721e+01  3.3000000000e-01 0. 9.
        2     1     5     0   104     0  8.9198463965e+01  2.7471564096e+01  1.3736599710e+01  9.4339047479e+01  3.3000000000e-01 0. 9.
       11     1     7     0     0     0 -5.7612176006e+01 -3.2170076310e+01 -1.3662403478e+02  1.5172410328e+02  5.1100000000e-04 0. 9.
      -12     1     7     0     0     0 -6.6981953553e+01 -2.7448099401e+01 -2.7507574848e+01  7.7438019967e+01  0.0000000000e+00 0. 9.
#pdf   21   21  6.522556e-02  4.607525e-02  2.701772e+02  1.373871e+00  2.037928e+00
</event>
<event>
    12  9999  1.000000e+00  1.806667e+02  7.878572e-03  1.070561e-01
       21    -1     0     0   101   102  0.0000000000e+00  0.0000000000e+00  8.2993572543e+01  8.2993572543e+01  0.0000000000e+00 0. 9.
       21    -1     0     0   103   101  0.0000000000e+00  0.0000000000e+00 -5.1675378955e+02  5.1675378955e+02  0.0000000000e+00 0. 9.
        6     2     1     2   103     0  5.2831474401e+01  5.4612260611e+00 -3.6128947012e+02  4.0291754664e+02  1.7026884182e+02  9.172290e-14 9.
       -6     2     1     2     0   102 -5.2831474401e+01 -5.4612260611e+00 -7.2470746888e+01  1.9682981545e+02  1.7512560469e+02  3.763253e-13 9.
       24     2     3     0     0     0  1.4981497398e+00 -8.0548326408e+00 -7.6232217301e+01  1.1292018209e+02  8.2900493282e+01  1.155283e-13 9.
        5     1     3     0   103     0  5.1333324662e+01  1.3516058702e+01 -2.8505725282e+02  2.8999736455e+02  4.8000000000e+00 0. 9.
      -24     2     4     0     0     0  3.5015191608e+01 -2.4388495764e+01 -2.1442780281e+01  9.3378514624e+01  8.0242705576e+01  1.913790e-13 9.
       -5     1     4     0     0   102 -8.7846666010e+01  1.8927269703e+01 -5.1027966608e+01  1.0345130083e+02  4.8000000000e+00 0. 9.
       -3     1     5     0     0   104  3.0508930553e+01 -2.2373382931e+01 -9.9102327819e+00  3.9112987882e+01  5.0000000000e-01 0. 9.
        4     1     5     0   104     0 -2.9010780813e+01  1.4318550291e+01 -6.6321984519e+01  7.3807194205e+01  1.5000000000e+00 0. 9.
        3     1     7     0   105     0  9.3781285541e+00 -5.0271378943e+01 -2.4658771244e+01  5.6775574284e+01  5.0000000000e-01 0. 9.
       -4     1     7     0     0   105  2.5637063054e+01  2.5882883178e+01  3.2159909636e+00  3.6602940340e+01  1.5000000000e+00 0. 9.
#pdf   21   21  1.276824e-02  7.950058e-02  1.783605e+02  6.701836e+00  1.116522e+00
</event>
<event>
    12  9999  1.000000e+00  2.720415e+02  7.915584e-03  1.019316e-01
       21    -1     0     0   101   102  0.0000000000e+00  0.0000000000e+00  1.6339333027e+02  1.6339333027e+02  0.0000000000e+00 0. 9.
       21    -1     0     0   102   103  0.0000000000e+00  0.0000000000e+00 -5.9383695742e+02  5.9383695742e+02  0.0000000000e+00 0. 9.
        6     2     1     2   101     0  4.2991991146e+01 -2.0727130086e+02 -3.0546033980e+01  2.7333908684e+02  1.7021014288e+02  2.583481e-13 9.
       -6     2     1     2     0   103 -4.2991991146e+01  2.0727130086e+02 -3.9989759316e+02  4.8389120085e+02  1.7153106359e+02  1.563643e-13 9.
       24     2     3     0     0     0  4.4822440093e+01 -2.1076940102e+02 -6.6866358389e+01  2.3649084111e+02  7.0880297017e+01  3.467657e-14 9.
        5     1     3     0   101     0 -1.8304489465e+00  3.4981001572e+00  3.6320324409e+01  3.6848245728e+01  4.8000000000e+00 0. 9.
      -24     2     4     0     0     0  2.5930734165e+01  1.6592405001e+02 -2.2872075637e+02  2.9472332125e+02  7.9658385291e+01  6.633149e-14 9.
       -5     1     4     0     0   103 -6.8922725311e+01  4.1347250847e+01 -1.7117683680e+02  1.8916787960e+02  4.8000000000e+00 0. 9.
       -3     1     5     0     0   104  4.4662935955e+01 -8.4009685642e+01 -4.6025469336e+00  9.5256698284e+01  5.0000000000e-01 0. 9.
        4     1     5     0   104     0  1.5950413760e-01 -1.2675971537e+02 -6.2263811455e+01  1.4123414283e+02  1.5000000000e+00 0. 9.
        1     1     7     0   105     0 -2.0316678228e+01  2.0890863860e+01 -6.4617796504e+01  7.0885570691e+01  3.3000000000e-01 0. 9.
       -2     1     7     0     0   105  4.6247412393e+01  1.4503318615e+02 -1.6410295986e+02  2.2383775056e+02  3.3000000000e-01 0. 9.
#pdf   21   21  2.513744e-02  9.135953e-02  2.716269e+02  3.727634e+00  8.960024e-01
</event>
<event>
    12  9999  1.000000e+00  2.345654e+02  7.902140e-03  1.037289e-01
       21    -1     0     0   101   102  0.0000000000e+00  0.0000000000e+00  2.5625940576e+02  2.5625940576e+02  0.0000000000e+00 0. 9.
       21    -1     0     0   102   103  0.0000000000e+00  0.0000000000e+00 -2.1510223636e+02  2.1510223636e+02  0.0000000000e+00 0. 9.
        6     2     1     2   101     0 -1.3518192767e+02 -8.6893615989e+01  3.0540708191e+01  2.3560203023e+02  1.6956098527e+02  1.844145e-13 9.
       -6     2     1     2     0   103  1.3518192767e+02  8.6893615989e+01  1.0616461210e+01  2.3575961189e+02  1.7217790591e+02  3.944515e-13 9.
       24     2     3     0     0     0 -9.8562735853e+00 -6.6370290041e+00 -1.0487925118e+01  8.1154537288e+01  7.9591871860e+01  2.776782e-14 9.
        5     1     3     0   101     0 -1.2532565408e+02 -8.0256586985e+01  4.1028633308e+01  1.5444749295e+02  4.8000000000e+00 0. 9.
      -24     2     4     0     0     0  3.8747979979e+01  9.3789089425e+01  3.9019843925e+01  1.3487925716e+02  7.9825224990e+01  3.855806e-14 9.
       -5     1     4     0     0   103  9.6433947691e+01 -6.8954734360e+00 -2.8403382714e+01  1.0088035473e+02  4.8000000000e+00 0. 9.
      -13     1     5     0     0     0  3.0139776472e+01 -1.7737000321e+01 -1.7422928067e+01  3.9071433204e+01  1.0566000000e-01  1.751254e+06 9.
       14     1     5     0     0     0 -3.9996050057e+01  1.1099971317e+01  6.9350029492e+00  4.2083104084e+01  0.0000000000e+00 0. 9.
        1     1     7     0   104     0 -1.7586011638e+00  5.6727102308e+01 -1.4103916766e+01  5.8481502909e+01  3.3000000000e-01 0. 9.
       -2     1     7     0     0   104  4.0506581143e+01  3.7061987117e+01  5.3123760690e+01  7.6397754252e+01  3.3000000000e-01 0. 9.
#pdf   21   21  3.942452e-02  3.309265e-02  2.336142e+02  2.420729e+00  2.885031e+00
</event>
<event>
    12  9999  1.000000e+00  2.603823e+02  7.911606e-03  1.024562e-01
       21    -1     0     0   101   102  0.0000000000e+00  0.0000000000e+00  5.9833291637e+02  5.9833291637e+02  0.0000000000e+00 0. 9.
       21    -1     0     0   102   103  0.0000000000e+00  0.0000000000e+00 -2.5701965072e+02  2.5701965072e+02  0.0000000000e+00 0. 9.
        6     2     1     2   101     0 -2.3701301455e+00 -1.9661316404e+02  4.9050102682e+02  5.5541080502e+02  1.7096067158e+02  1.464836e-14 9.
       -6     2     1     2     0   103  2.3701301455e+00  1.9661316404e+02 -1.4918776118e+02  2.9994176207e+02  1.7042804569e+02  1.945940e-14 9.
       24     2     3     0     0     0  9.1227452978e+00 -1.8120781495e+02  4.9659417071e+02  5.3468455670e+02  7.9764077832e+01  1.228068e-13 9.
        5     1     3     0   101     0 -1.1492875443e+01 -1.5405349096e+01 -6.0931438926e+00  2.0726248315e+01  4.8000000000e+00 0. 9.
      -24     2     4     0     0     0 -6.1946395438e+01  9.1257420726e+01 -8.7391134737e+01  1.6181750225e+02  7.9890054809e+01  1.332710e-14 9.
       -5     1     4     0     0   103  6.4316525584e+01  1.0535574332e+02 -6.1796626440e+01  1.3812425982e+02  4.8000000000e+00 0. 9.
       -1     1     5     0     0   104 -1.0214627394e+01 -7.4707084911e+01  1.1102162645e+02  1.3420654823e+02  3.3000000000e-01 0. 9.
        2     1     5     0   104     0  1.9337372692e+01 -1.0650073003e+02  3.8557254426e+02  4.0047800847e+02  3.3000000000e-01 0. 9.
        3     1     7     0   105     0  3.3682299337e+00  6.5381602526e+01 -3.5591905743e+01  7.4519344308e+01  5.0000000000e-01 0. 9.
       -4     1     7     0     0   105 -6.5314625372e+01  2.5875818200e+01 -5.1799228994e+01  8.7298157938e+01  1.5000000000e+00 0. 9.
#pdf   21   21  9.205122e-02  3.954148e-02  2.602077e+02  8.907142e-01  2.399712e+00
</event>
<event>
    12  9999  1.000000e+00  2.830431e+02  7.919187e-03  1.014615e-01
       21    -1     0     0   101   102  0.0000000000e+00  0.0000000000e+00  1.2195040715e+02  1.2195040715e+02  0.0000000000e+00 0. 9.
       21    -1     0     0   102   103  0.0000000000e+00  0.0000000000e+00 -6.8716179364e+02  6.8716179364e+02  0.0000000000e+00 0. 9.
        6     2     1     2   101     0 -2.2475826214e+02  1.8817799362e+01 -1.9723720923e+02  3.4453847383e+02  1.7009955106e+02  2.360115e-13 9.
       -6     2     1     2     0   103  2.2475826214e+02 -1.8817799362e+01 -3.6797417726e+02  4.6457372697e+02  1.7191092662e+02  3.553049e-13 9.
       24     2     3     0     0     0 -2.2351971745e+02  1.3021064134e+00 -1.2172316360e+02  2.6686129197e+02  8.0222571806e+01  5.667426e-14 9.
        5     1     3     0   101     0 -1.2385446851e+00  1.7515692949e+01 -7.5514045636e+01  7.7677181853e+01  4.8000000000e+00 0. 9.
      -24     2     4     0     0     0  1.7587135725e+02  1.7986482476e+01 -1.7593962065e+02  2.6296818250e+02  8.3326268598e+01  3.396430e-14 9.
       -5     1     4     0     0   103  4.8886904882e+01 -3.6804281838e+01 -1.9203455660e+02  2.0160554447e+02  4.8000000000e+00 0. 9.
       -1     1     5     0     0   104 -3.6369004620e+01  1.2529425426e+01  7.4505134855e+00  3.9183032677e+01  3.3000000000e-01 0. 9.
        2     1     5     0   104     0 -1.8715071283e+02 -1.1227319013e+01 -1.2917367708e+02  2.2767825930e+02  3.3000000000e-01 0. 9.
        1     1     7     0   105     0  1.0777530302e+02  3.1811396467e+01 -5.8963836436e+01  1.2690281240e+02  3.3000000000e-01 0. 9.
       -4     1     7     0     0   105  6.8096054231e+01 -1.3824913990e+01 -1.1697578422e+02  1.3606537011e+02  1.5000000000e+00 0. 9.
#pdf   21   21  1.876160e-02  1.057172e-01  2.824964e+02  4.844025e+00  7.291176e-01
</event>
<event>
    12  9999  1.000000e+00  1.731328e+02  7.874740e-03  1.076196e-01
       -1    -1     0     0     0   101  0.0000000000e+00  0.0000000000e+00  1.6924564498e+01  1.6924564498e+01  0.0000000000e+00 0. 9.
        1    -1     0     0   102     0  0.0000000000e+00  0.0000000000e+00 -2.0326421634e+03  2.0326421634e+03  0.0000000000e+00 0. 9.
       -6     2     1     2     0   101 -1.6806794014e+00 -2.1386672971e+01 -6.3653601191e+02  6.5946830514e+02  1.7105594568e+02  4.634726e-13 9.
        6     2     1     2   102     0  1.6806794014e+00  2.1386672971e+01 -1.3791815869e+03  1.3900984227e+03  1.7254437287e+02  1.378720e-14 9.
      -24     2     3     0     0     0  1.9888695510e+01  4.9637648181e+01 -3.8899559490e+02  4.0099395402e+02  8.1357986604e+01  1.965477e-13 9.
       -5     1     3     0     0   101 -2.1569374911e+01 -7.1024321152e+01 -2.4754041702e+02  2.5847435112e+02  4.8000000000e+00 0. 9.
       24     2     4     0     0     0  4.7772760620e+01  4.9007910619e+01 -1.1397462359e+03  1.1446605690e+03  8.0884633608e+01  1.115461e-13 9.
        5     1     4     0   102     0 -4.6092081219e+01 -2.7621237648e+01 -2.3943535103e+02  2.4543785373e+02  4.8000000000e+00 0. 9.
        1     1     5     0   103     0  3.8181469606e+01  2.2914025711e+01 -3.3561956587e+02  3.3856089421e+02  3.3000000000e-01 0. 9.
       -2     1     5     0     0   103 -1.8292774096e+01  2.6723622470e+01 -5.3376029029e+01  6.2433059808e+01  3.3000000000e-01 0. 9.
       -1     1     7     0     0   104  1.3392349385e+01 -2.2405074994e+01 -2.3335539566e+02  2.3481097076e+02  3.3000000000e-01 0. 9.
        2     1     7     0   104     0  3.4380411235e+01  7.1412985613e+01 -9.0639084025e+02  9.0984959822e+02  3.3000000000e-01 0. 9.
#pdf   -1    1  2.603779e-03  3.127142e-01  1.723959e+02  1.049700e+00  1.165678e-01
</event>
<event>
    12  9999  1.000000e+00  2.336542e+02  7.901788e-03  1.037770e-01
       21    -1     0     0   101   102  0.0000000000e+00  0.0000000000e+00  3.4242078998e+02  3.4242078998e+02  0.0000000000e+00 0. 9.
       21    -1     0     0   102   103  0.0000000000e+00  0.0000000000e+00 -2.5399284245e+02  2.5399284245e+02  0.0000000000e+00 0. 9.
        6     2     1     2   101     0  2.5343137526e+01  1.5801671861e+02  2.2611843409e+02  3.2487849708e+02  1.6972016276e+02  4.583464e-14 9.
       -6     2     1     2     0   103 -2.5343137526e+01 -1.5801671861e+02 -1.3769048656e+02  2.7153513535e+02  1.7076621931e+02  3.034747e-14 9.
       24     2     3     0     0     0  7.1188750631e+01  9.1216492685e+01  9.3774236729e+01  1.6962993187e+02  8.1193716243e+01  1.611199e-14 9.
        5     1     3     0   101     0 -4.5845613104e+01  6.6800225924e+01  1.3234419736e+02  1.5524856521e+02  4.8000000000e+00 0. 9.
      -24     2     4     0     0     0  1.0121491467e+01 -1.4166911069e+02 -4.2705986134e+01  1.6872424334e+02  8.0445556267e+01  6.080483e-14 9.
       -5     1     4     0     0   103 -3.5464628994e+01 -1.6347607915e+01 -9.4984500430e+01  1.0281089201e+02  4.8000000000e+00 0. 9.
       -1     1     5     0     0   104  6.4392798291e+01  1.0505807951e+02  9.2645399723e+01  1.5416520856e+02  3.3000000000e-01 0. 9.
        2     1     5     0   104     0  6.7959523395e+00 -1.3841586821e+01  1.1288370060e+00  1.5464723305e+01  3.3000000000e-01 0. 9.
        3     1     7     0   105     0  5.0409928706e+00  9.2035918665e+00 -9.4688049892e+00  1.4143054136e+01  5.0000000000e-01 0. 9.
       -4     1     7     0     0   105  5.0804985968e+00 -1.5087270256e+02 -3.3237181145e+01  1.5458118920e+02  1.5000000000e+00 0. 9.
#pdf   21   21  5.268012e-02  3.907582e-02  2.332734e+02  1.776529e+00  2.443026e+00
</event>
<event>
    12  9999  1.000000e+00  2.120297e+02  7.893005e-03  1.049910e-01
       21    -1     0     0   101   102  0.0000000000e+00  0.0000000000e+00  1.4412902807e+02  1.4412902807e+02  0.0000000000e+00 0. 9.
       21    -1     0     0   102   103  0.0000000000e+00  0.0000000000e+00 -3.2326424004e+02  3.2326424004e+02  0.0000000000e+00 0. 9.
        6     2     1     2   101     0  1.1168002405e+02  5.3722485381e+01 -1.3358701101e+02  2.5111074478e+02  1.7277900170e+02  8.385233e-15 9.
       -6     2     1     2     0   103 -1.1168002405e+02 -5.3722485381e+01 -4.5548200972e+01  2.1628252333e+02  1.7130370130e+02  2.480725e-13 9.
       24     2     3     0     0     0  2.2124164867e-01  4.4347566204e+01 -2.1103258758e+01  9.2407928790e+01  7.8275936257e+01  7.451579e-14 9.
        5     1     3     0   101     0  1.1145878240e+02  9.3749191773e+00 -1.1248375225e+02  1.5870281599e+02  4.8000000000e+00 0. 9.
      -24     2     4     0     0     0  7.2630001395e+00 -4.7080639753e+00  9.1461382716e+00  7.6409841033e+01  7.5365077615e+01  1.645644e-14 9.
       -5     1     4     0     0   103 -1.1894302419e+02 -4.9014421406e+01 -5.4694339243e+01  1.3987268230e+02  4.8000000000e+00 0. 9.
      -13     1     5     0     0     0 -2.3928841134e+01 -7.9339089470e+00 -2.3916145326e+01  3.4749525471e+01  1.0566000000e-01  2.120609e+05 9.
       14     1     5     0     0     0  2.4150082783e+01  5.2281475151e+01  2.8128865684e+00  5.7658403318e+01  0.0000000000e+00 0. 9.
        3     1     7     0   104     0 -1.2605865551e+01 -5.7327210966e+00  3.8499674826e+01  4.0917562234e+01  5.0000000000e-01 0. 9.
       -4     1     7     0     0   104  1.9868865690e+01  1.0246571213e+00 -2.9353536555e+01  3.5492278798e+01  1.5000000000e+00 0. 9.
#pdf   21   21  2.217370e-02  4.973296e-02  2.114320e+02  4.207860e+00  1.905082e+00
</event>
<event>
    12  9999  1.000000e+00  2.197928e+02  7.896255e-03  1.045382e-01
        2    -1     0     0   101     0  0.0000000000e+00  0.0000000000e+00  4.1558761156e+02  4.1558761156e+02  0.0000000000e+00 0. 9.
       -2    -1     0     0     0   102  0.0000000000e+00  0.0000000000e+00 -1.5298794987e+02  1.5298794987e+02  0.0000000000e+00 0. 9.
        6     2     1     2   101     0  1.0397859440e+02 -9.0387221543e+01  2.7062159857e+02  3.4862705073e+02  1.7124068727e+02  9.494144e-14 9.
       -6     2     1     2     0   102 -1.0397859440e+02  9.0387221543e+01 -8.0219368769e+00  2.1994851069e+02  1.7126470147e+02  2.280221e-13 9.
       24     2     3     0     0     0  5.9647732241e+01 -1.5397133009e+01  5.2262528525e+01  1.1348355797e+02  7.9700830454e+01  4.045626e-14 9.
        5     1     3     0   101     0  4.4330862164e+01 -7.4990088534e+01  2.1835907005e+02  2.3514349277e+02  4.8000000000e+00 0. 9.
      -24     2     4     0     0     0 -1.0328763120e+02  3.3160823324e+01 -5.4919506133e+01  1.4580162886e+02  8.0461095331e+01  2.710829e-14 9.
       -5     1     4     0     0   102 -6.9096320620e-01  5.7226398219e+01  4.6897569256e+01  7.4146881832e+01  4.8000000000e+00 0. 9.
       -1     1     5     0     0   103  6.7695211397e+01 -3.6101951825e+01  4.8988648611e+01  9.1027408863e+01  3.3000000000e-01 0. 9.
        2     1     5     0   103     0 -8.0474791559e+00  2.0704818816e+01  3.2738799142e+00  2.2456149105e+01  3.3000000000e-01 0. 9.
        1     1     7     0   104     0 -4.0165284421e+01  4.5232981489e+00 -6.4202870491e+01  7.5867171939e+01  3.3000000000e-01 0. 9.
       -2     1     7     0     0   104 -6.3122346778e+01  2.8637525175e+01  9.2833643581e+00  6.9934456920e+01  3.3000000000e-01 0. 9.
#pdf    2   -2  6.393656e-02  2.353661e-02  2.197835e+02  6.099015e-01  2.981437e-01
</event>
<event>
    12  9999  1.000000e+00  1.859101e+02  7.881148e-03  1.066810e-01
       21    -1     0     0   101   102  0.0000000000e+00  0.0000000000e+00  3.7240540601e+02  3.7240540601e+02  0.0000000000e+00 0. 9.
       21    -1     0     0   102   103  0.0000000000e+00  0.0000000000e+00 -2.0292084251e+02  2.0292084251e+02  0.0000000000e+00 0. 9.
        6     2     1     2   101     0  6.1766725777e+01  3.7936609750e+01  2.9667933888e+02  3.5020200609e+02  1.7137240205e+02  1.251954e-13 9.
       -6     2     1     2     0   103 -6.1766725777e+01 -3.7936609750e+01 -1.2719477538e+02  2.2512424243e+02  1.7102075567e+02  4.863622e-13 9.
       24     2     3     0     0     0  9.4093096880e+01  2.0698951628e+01  2.8579034945e+02  3.1168264451e+02  7.8663775454e+01  9.374263e-15 9.
        5     1     3     0   101     0 -3.2326371104e+01  1.7237658122e+01  1.0888989425e+01  3.8519361586e+01  4.8000000000e+00 0. 9.
      -24     2     4     0     0     0  1.4469300284e+01 -2.0101038999e+01 -1.0821367455e+02  1.4441884334e+02  9.2375270129e+01  2.448264e-13 9.
       -5     1     4     0     0   103 -7.6236026061e+01 -1.7835570751e+01 -1.8981100832e+01  8.0705399091e+01  4.8000000000e+00 0. 9.
       -1     1     5     0     0   104  7.1658153444e+01  1.8640766756e+01  9.9460468023e+01  1.2399541419e+02  3.3000000000e-01 0. 9.
        2     1     5     0   104     0  2.2434943436e+01  2.0581848715e+00  1.8632988143e+02  1.8768723032e+02  3.3000000000e-01 0. 9.
       11     1     7     0     0     0  1.9046777819e+01 -5.5851752559e+01 -7.4763370047e+01  9.5245784737e+01  5.1100000000e-04 0. 9.
      -12     1     7     0     0     0 -4.5774775344e+00  3.5750713560e+01 -3.3450304505e+01  4.9173058600e+01  0.0000000000e+00 0. 9.
#pdf   21   21  5.729314e-02  3.121859e-02  1.857483e+02  1.642839e+00  3.082100e+00
</event>
<event>
    12  9999  1.000000e+00  1.924719e+02  7.884273e-03  1.062298e-01
       21    -1     0     0   101   102  0.0000000000e+00  0.0000000000e+00  1.0824992796e+03  1.0824992796e+03  0.0000000000e+00 0. 9.
       21    -1     0     0   103   101  0.0000000000e+00  0.0000000000e+00 -6.1061597727e+01  6.1061597727e+01  0.0000000000e+00 0. 9.
        6     2     1     2   103     0  5.4083232548e+01 -7.1045806366e+01  1.3056824602e+02  2.3198373707e+02  1.6969350238e+02  1.396605e-13 9.
       -6     2     1     2     0   102 -5.4083232548e+01  7.1045806366e+01  8.9086943590e+02  9.1157714031e+02  1.7132433648e+02  7.900936e-14 9.
       24     2     3     0     0     0  1.1090375846e+01 -6.4648194955e+01  1.1490920393e+01  1.0513041768e+02  8.1350955271e+01  9.245096e-14 9.
        5     1     3     0   103     0  4.2992856703e+01 -6.3976114102e+00  1.1907732563e+02  1.2685331938e+02  4.8000000000e+00 0. 9.
      -24     2     4     0     0     0  2.6832190091e+01  6.8204383996e+01  5.3913620896e+02  5.5061359334e+02  8.4472912495e+01  5.146631e-14 9.
       -5     1     4     0     0   102 -8.0915422639e+01  2.8414223694e+00  3.5173322694e+02  3.6096354696e+02  4.8000000000e+00 0. 9.
       -1     1     5     0     0   104  3.7177341478e+00  5.3612217394e+00  3.1319787491e+01  3.1993784306e+01  3.3000000000e-01 0. 9.
        2     1     5     0   104     0  7.3726416979e+00 -7.0009416695e+01 -1.9828867098e+01  7.3136633378e+01  3.3000000000e-01 0. 9.
        3     1     7     0   105     0 -1.9396177761e+00  7.3255819024e+01  2.6581996437e+02  2.7573661454e+02  5.0000000000e-01 0. 9.
       -4     1     7     0     0   105  2.8771807867e+01 -5.0514350272e+00  2.7331624458e+02  2.7487697880e+02  1.5000000000e+00 0. 9.
#pdf   21   21  1.665384e-01  9.394092e-03  1.917508e+02  3.763074e-01  8.510533e+00
</event>
<event>
    12  9999  1.000000e+00  2.529715e+02  7.908986e-03  1.028049e-01
       21    -1     0     0   101   102  0.0000000000e+00  0.0000000000e+00  3.9381262340e+01  3.9381262340e+01  0.0000000000e+00 0. 9.
       21    -1     0     0   103   101  0.0000000000e+00  0.0000000000e+00 -1.8739873518e+03  1.8739873518e+03  0.0000000000e+00 0. 9.
        6     2     1     2   103     0  1.8737027402e+02 -8.4759492131e+00 -1.2677370065e+03  1.2928377687e+03  1.7056645960e+02  2.321036e-13 9.
       -6     2     1     2     0   102 -1.8737027402e+02  8.4759492131e+00 -5.6686908301e+02  6.2053084553e+02  1.6893345339e+02  2.549619e-14 9.
       24     2     3     0     0     0  1.6681197113e+02  4.7747015755e+01 -1.0255490802e+03  1.0433148293e+03  8.1540824030e+01  6.662077e-14 9.
        5     1     3     0   103     0  2.0558302893e+01 -5.6222964969e+01 -2.4218792629e+02  2.4952293932e+02  4.8000000000e+00 0. 9.
      -24     2     4     0     0     0 -1.5235778091e+02 -4.7265866142e+01 -3.3693318102e+02  3.8131006115e+02  8.0165071920e+01  6.776660e-14 9.
       -5     1     4     0     0   102 -3.5012493113e+01  5.5741815355e+01 -2.2993590200e+02  2.3922078438e+02  4.8000000000e+00 0. 9.
      -15     1     5     0     0     0  1.0160650654e+02  1.7258605853e+01 -7.9858457513e+02  8.0520942765e+02  1.7768200000e+00  6.115088e-02 9.
       16     1     5     0     0     0  6.5205464587e+01  3.0488409903e+01 -2.2696450506e+02  2.3810540168e+02  0.0000000000e+00 0. 9.
       13     1     7     0     0     0 -2.2827525870e+01 -4.3048442043e+01 -1.0039989367e+02  1.1159934638e+02  1.0566000000e-01  1.229999e+06 9.
      -14     1     7     0     0     0 -1.2953025504e+02 -4.2174240991e+00 -2.3653328734e+02  2.6971071476e+02  0.0000000000e+00 0. 9.
#pdf   21   21  6.058656e-03  2.883057e-01  2.524242e+02  1.183795e+01  1.076899e-01
</event>
<event>
    12  9999  1.000000e+00  1.801036e+02  7.878291e-03  1.070972e-01
       21    -1     0     0   101   102  0.0000000000e+00  0.0000000000e+00  1.6226636697e+03  1.6226636697e+03  0.0000000000e+00 0. 9.
       21    -1     0     0   103   101  0.0000000000e+00  0.0000000000e+00 -4.1382703787e+01  4.1382703787e+01  0.0000000000e+00 0. 9.
        6     2     1     2   103     0  5.4388584417e+01 -1.2797957197e+01  1.9431781532e+02  2.6555219170e+02  1.7215297657e+02  2.274091e-14 9.
       -6     2     1     2     0   102 -5.4388584417e+01  1.2797957197e+01  1.3869631506e+03  1.3984941818e+03  1.7028590537e+02  3.864928e-13 9.
       24     2     3     0     0     0  4.2370141904e+01 -1.1135674861e+01  2.4601972591e+01  9.5335525605e+01  8.1020819593e+01  3.046808e-13 9.
        5     1     3     0   103     0  1.2018442513e+01 -1.6622823352e+00  1.6971584273e+02  1.7021666610e+02  4.8000000000e+00 0. 9.
      -24     2     4     0     0     0 -5.5645865285e+01 -5.3944032393e+01  8.1033597610e+02  8.1799610919e+02  8.0416537661e+01  1.175815e-13 9.
       -5     1     4     0     0   102  1.2572808682e+00  6.6741989590e+01  5.7662717448e+02  5.8049807259e+02  4.8000000000e+00 0. 9.
       -1     1     5     0     0   104 -1.7874590657e+01  1.0400413477e+01 -9.5843494221e+00  2.2795575129e+01  3.3000000000e-01 0. 9.
        2     1     5     0   104     0  6.0244732561e+01 -2.1536088338e+01  3.4186322013e+01  7.2539950476e+01  3.3000000000e-01 0. 9.
        1     1     7     0   105     0 -7.2080762389e+00 -2.1846638987e+01  5.7957244536e+02  5.8002893058e+02  3.3000000000e-01 0. 9.
       -2     1     7     0     0   105 -4.8437789046e+01 -3.2097393406e+01  2.3076353075e+02  2.3796717861e+02  3.3000000000e-01 0. 9.
#pdf   21   21  2.496406e-01  6.366570e-03  1.792183e+02  1.693687e-01  1.131355e+01
</event>
<event>
    12  9999  1.000000e+00  1.687100e+02  7.872414e-03  1.079848e-01
       21    -1     0     0   101   102  0.0000000000e+00  0.0000000000e+00  1.2063946248e+02  1.2063946248e+02  0.0000000000e+00 0. 9.
       21    -1     0     0   102   103  0.0000000000e+00  0.0000000000e+00 -3.4221104329e+02  3.4221104329e+02  0.0000000000e+00 0. 9.
        6     2     1     2   101     0  1.4925323469e+01 -1.2709806321e+01  1.9206039687e+01  1.6748963512e+02  1.6522591036e+02  1.382911e-14 9.
       -6     2     1     2     0   103 -1.4925323469e+01  1.2709806321e+01 -2.4077762049e+02  2.9536087065e+02  1.6994080417e+02  2.005783e-13 9.
       24     2     3     0     0     0  4.9664766052e+01 -5.0221431920e+01 -1.2295203545e+01  1.0724580348e+02  7.9760322979e+01  1.944197e-15 9.
        5     1     3     0   101     0 -3.4739442584e+01  3.7511625599e+01  3.1501243232e+01  6.0243831645e+01  4.8000000000e+00 0. 9.
      -24     2     4     0     0     0  5.2156342185e+01 -1.2651417426e+01 -1.6894434779e+02  1.9374295587e+02  7.8190778910e+01  5.665299e-14 9.
       -5     1     4     0     0   103 -6.7081665654e+01  2.5361223747e+01 -7.1833272706e+01  1.0161791478e+02  4.8000000000e+00 0. 9.
       -1     1     5     0     0   104 -1.9418141399e+00 -7.7821032970e+00  2.8061710658e+01  2.9187330795e+01  3.3000000000e-01 0. 9.
        2     1     5     0   104     0  5.1606580192e+01 -4.2439328623e+01 -4.0356914203e+01  7.8058472680e+01  3.3000000000e-01 0. 9.
       15     1     7     0     0     0  1.1587889100e+00 -4.1373890009e-01 -1.2583587080e+02  1.2585442956e+02  1.7768200000e+00  5.119184e-02 9.
      -16     1     7     0     0     0  5.0997553275e+01 -1.2237678526e+01 -4.3108476989e+01  6.7888526306e+01  0.0000000000e+00 0. 9.
#pdf   21   21  1.855992e-02  5.264785e-02  1.663848e+02  4.931625e+00  1.817302e+00
</event>
<event>
    12  9999  1.000000e+00  1.741687e+02  7.875276e-03  1.075403e-01
       21    -1     0     0   101   102  0.0000000000e+00  0.0000000000e+00  2.2097187381e+02  2.2097187381e+02  0.0000000000e+00 0. 9.
       21    -1     0     0   102   103  0.0000000000e+00  0.0000000000e+00 -3.5404187752e+02  3.5404187752e+02  0.0000000000e+00 0. 9.
        6     2     1     2   101     0 -1.2754367715e+00 -2.0822211774e+01  1.5843476077e+02  2.3542199243e+02  1.7287784663e+02  1.018483e-13 9.
       -6     2     1     2     0   103  1.2754367715e+00  2.0822211774e+01 -2.9150476448e+02  3.3959175890e+02  1.7295185386e+02  1.711269e-13 9.
       24     2     3     0     0     0 -2.2514557360e+01 -3.3304974354e+01  1.8073195455e+02  2.0184931819e+02  8.0392669107e+01  9.518529e-15 9.
        5     1     3     0   101     0  2.1239120588e+01  1.2482762580e+01 -2.2297193781e+01  3.3572674238e+01  4.8000000000e+00 0. 9.
      -24     2     4     0     0     0  4.3596525741e+01  2.1880553138e+01 -2.8121121251e+02  2.9576035611e+02  7.7556602185e+01  1.482258e-14 9.
       -5     1     4     0     0   103 -4.2321088969e+01 -1.0583413637e+00 -1.0293551971e+01  4.3831402786e+01  4.8000000000e+00 0. 9.
       -3     1     5     0     0   104 -1.4938491224e+01  2.3405670348e+01  9.3338540954e+01  9.7382324638e+01  5.0000000000e-01 0. 9.
        4     1     5     0   104     0 -7.5760661362e+00 -5.6710644703e+01  8.7393413600e+01  1.0446699355e+02  1.5000000000e+00 0. 9.
       11     1     7     0     0     0 -1.4193350099e+00 -1.7471291088e+00  4.7810342853e+00  5.2844357402e+00  5.1100000000e-04 0. 9.
      -12     1     7     0     0     0  4.5015860751e+01  2.3627682247e+01 -2.8599224680e+02  2.9047592037e+02  0.0000000000e+00 0. 9.
#pdf   21   21  3.399567e-02  5.446798e-02  1.741320e+02  2.845835e+00  1.745706e+00
</event>
<event>
    12  9999  1.000000e+00  2.150461e+02  7.894282e-03  1.048126e-01
       21    -1     0     0   101   102  0.0000000000e+00  0.0000000000e+00  3.4407354637e+02  3.4407354637e+02  0.0000000000e+00 0. 9.
       21    -1     0     0   103   101  0.0000000000e+00  0.0000000000e+00 -2.7894531089e+02  2.7894531089e+02  0.0000000000e+00 0. 9.
        6     2     1     2   103     0  1.7207434817e+00 -1.3833854411e+02 -1.9132503174e+02  2.9087675289e+02  1.6989262450e+02  6.696053e-14 9.
       -6     2     1     2     0   102 -1.7207434817e+00  1.3833854411e+02  2.5645326722e+02  3.3214210437e+02  1.5940384401e+02  3.083933e-13 9.
       24     2     3     0     0     0 -6.2555317948e+01 -5.6969074021e+01 -9.3633940734e+01  1.4833205114e+02  7.7951519167e+01  2.618026e-14 9.
        5     1     3     0   103     0  6.4276061429e+01 -8.1369470088e+01 -9.7691091005e+01  1.4254470175e+02  4.8000000000e+00 0. 9.
      -24     2     4     0     0     0  4.2427470031e+01  7.8230929206e+01  8.1801639980e+01  1.4217310421e+02  7.4843267960e+01  1.244703e-13 9.
       -5     1     4     0     0   102 -4.4148213512e+01  6.0107614903e+01  1.7465162724e+02  1.8996900016e+02  4.8000000000e+00 0. 9.
      -11     1     5     0     0     0 -5.7620229858e+01 -7.4705395502e+01 -8.8161860399e+01  1.2912591001e+02  5.1100000000e-04 0. 9.
       12     1     5     0     0     0 -4.9350880901e+00  1.7736321481e+01 -5.4720803357e+00  1.9206141136e+01  0.0000000000e+00 0. 9.
        3     1     7     0   104     0 -1.4498870996e+01  4.6258498475e+01  4.9601463853e+01  6.9358641550e+01  5.0000000000e-01 0. 9.
       -4     1     7     0     0   104  5.6926341026e+01  3.1972430731e+01  3.2200176127e+01  7.2814462658e+01  1.5000000000e+00 0. 9.
#pdf   21   21  5.293439e-02  4.291466e-02  2.110689e+02  1.779144e+00  2.229663e+00
</event>
<event>
    12  9999  1.000000e+00  2.236049e+02  7.897810e-03  1.043230e-01
       21    -1     0     0   101   102  0.0000000000e+00  0.0000000000e+00  1.3731245592e+02  1.3731245592e+02  0.0000000000e+00 0. 9.
       21    -1     0     0   103   101  0.0000000000e+00  0.0000000000e+00 -4.2418355193e+02  4.2418355193e+02  0.0000000000e+00 0. 9.
        6     2     1     2   103     0 -5.0491911840e+01  1.3152597033e+02 -2.5034723071e+02  3.3727210768e+02  1.7672075334e+02  6.810350e-15 9.
       -6     2     1     2     0   102  5.0491911840e+01 -1.3152597033e+02 -3.6523865304e+01  2.2422390017e+02  1.7056919604e+02  9.283761e-14 9.
       24     2     3     0     0     0 -5.9560624917e+01  1.5587718184e+02 -1.6487628154e+02  2.4780956685e+02  7.9876337855e+01  1.744354e-13 9.
        5     1     3     0   103     0  9.0687130771e+00 -2.4351211509e+01 -8.5470949173e+01  8.9462540828e+01  4.8000000000e+00 0. 9.
      -24     2     4     0     0     0  8.8927521854e+00 -4.7221420575e+00 -4.0969697794e+01  9.0610628469e+01  8.0189713724e+01  1.395618e-13 9.
       -5     1     4     0     0   102  4.1599159654e+01 -1.2680382827e+02  4.4458324893e+00  1.3361327170e+02  4.8000000000e+00 0. 9.
       -3     1     5     0     0   104  8.3265182764e+00  8.9815520819e+01 -7.7205297149e+01  1.1873106836e+02  5.0000000000e-01 0. 9.
        4     1     5     0   104     0 -6.7887143193e+01  6.6061661020e+01 -8.7670984387e+01  1.2907849848e+02  1.5000000000e+00 0. 9.
        3     1     7     0   105     0 -2.3378826877e+01  9.3703340223e+00 -4.8423834808e+01  5.4584709245e+01  5.0000000000e-01 0. 9.
       -4     1     7     0     0   105  3.2271579063e+01 -1.4092476080e+01  7.4541370144e+00  3.6025919224e+01  1.5000000000e+00 0. 9.
#pdf   21   21  2.112499e-02  6.525901e-02  2.212292e+02  4.387710e+00  1.394820e+00
</event>
<event>
    12  9999  1.000000e+00  1.922365e+02  7.884162e-03  1.062456e-01
       21    -1     0     0   101   102  0.0000000000e+00  0.0000000000e+00  1.9019874096e+02  1.9019874096e+02  0.0000000000e+00 0. 9.
       21    -1     0     0   102   103  0.0000000000e+00  0.0000000000e+00 -3.2847622364e+02  3.2847622364e+02  0.0000000000e+00 0. 9.
        6     2     1     2   101     0 -8.6962071859e+01 -2.3547526600e+00  9.6588399473e+01  2.1523947564e+02  1.7155397447e+02  6.051539e-14 9.
       -6     2     1     2     0   103  8.6962071859e+01  2.3547526600e+00 -2.3486588215e+02  3.0343548897e+02  1.7129847215e+02  3.185660e-14 9.
       24     2     3     0     0     0 -8.6613915102e-02  4.7244278098e+01  6.2076997261e+01  1.0930796037e+02  7.6567926024e+01  4.416364e-14 9.
        5     1     3     0   101     0 -8.6875457944e+01 -4.9599030758e+01  3.4511402212e+01  1.0593151527e+02  4.8000000000e+00 0. 9.
      -24     2     4     0     0     0  1.2473715286e+02  1.6895454955e+01 -1.6534037114e+02  2.2284252743e+02  8.0476953219e+01  8.182541e-14 9.
       -5     1     4     0     0   103 -3.7775081001e+01 -1.4540702295e+01 -6.9525511014e+01  8.0592961539e+01  4.8000000000e+00 0. 9.
       -3     1     5     0     0   104 -2.5703751089e+01  3.9529599157e+01  6.4888666603e+00  4.7598607333e+01  5.0000000000e-01 0. 9.
        4     1     5     0   104     0  2.5617137173e+01  7.7146789407e+00  5.5588130601e+01  6.1709353033e+01  1.5000000000e+00 0. 9.
        3     1     7     0   105     0 -9.9650747458e+00  8.8214716070e+00 -7.9232889738e+00  1.5496760441e+01  5.0000000000e-01 0. 9.
       -4     1     7     0     0   105  1.3470222761e+02  8.0739833477e+00 -1.5741708217e+02  2.0734576699e+02  1.5000000000e+00 0. 9.
#pdf   21   21  2.926134e-02  5.053480e-02  1.921227e+02  3.273613e+00  1.883706e+00
</event>
<event>
    12  9999  1.000000e+00  2.005174e+02  7.887966e-03  1.057020e-01
       21    -1     0     0   101   102  0.0000000000e+00  0.0000000000e+00  2.6687330685e+03  2.6687330685e+03  0.0000000000e+00 0. 9.
       21    -1     0     0   103   101  0.0000000000e+00  0.0000000000e+00 -5.2028114459e+01  5.2028114459e+01  0.0000000000e+00 0. 9.
        6     2     1     2   103     0 -5.3728599012e+01 -9.4008578247e+01  1.5788281569e+02  2.5360734497e+02  1.6632897160e+02  1.886767e-14 9.
       -6     2     1     2     0   102  5.3728599012e+01  9.4008578247e+01  2.4588221384e+03  2.4671538380e+03  1.7122317942e+02  1.417583e-13 9.
       24     2     3     0     0     0  2.4646706281e+01 -7.7941818878e+01  8.9783119540e+01  1.4843397451e+02  8.5377098654e+01  2.253591e-14 9.
        5     1     3     0   103     0 -7.8375305293e+01 -1.6066759369e+01  6.8099696155e+01  1.0517337045e+02  4.8000000000e+00 0. 9.
      -24     2     4     0     0     0  3.8126395174e+01  9.6195875053e+01  2.4326723783e+03  2.4362497447e+03  8.1918557358e+01  1.950760e-14 9.
       -5     1     4     0     0   102  1.5602203838e+01 -2.1872968058e+00  2.6149760082e+01  3.0904093325e+01  4.8000000000e+00 0. 9.
       -1     1     5     0     0   104  1.3530716585e+01  1.7063974428e+01  2.3607405633e+01  3.2119744945e+01  3.3000000000e-01 0. 9.
        2     1     5     0   104     0  1.1115989695e+01 -9.5005793306e+01  6.6175713906e+01  1.1631422957e+02  3.3000000000e-01 0. 9.
        1     1     7     0   105     0  3.8967885572e+01  4.0393255176e+00  6.2083180264e+02  6.2206675552e+02  3.3000000000e-01 0. 9.
       -2     1     7     0     0   105 -8.4149039835e-01  9.2156549535e+01  1.8118405757e+03  1.8141829892e+03  3.3000000000e-01 0. 9.
#pdf   21   21  4.105743e-01  8.004325e-03  1.984684e+02  3.041128e-02  9.602437e+00
</event>
<event>
    12  9999  1.000000e+00  1.962703e+02  7.886035e-03  1.059772e-01
       21    -1     0     0   101   102  0.0000000000e+00  0.0000000000e+00  2.4035839260e+02  2.4035839260e+02  0.0000000000e+00 0. 9.
       21    -1     0     0   102   103  0.0000000000e+00  0.0000000000e+00 -2.1972554232e+02  2.1972554232e+02  0.0000000000e+00 0. 9.
        6     2     1     2   101     0 -9.0747840580e+01 -3.1300856658e+01  1.2999134244e+02  2.3564279892e+02  1.7150762483e+02  9.326863e-15 9.
       -6     2     1     2     0   103  9.0747840580e+01  3.1300856658e+01 -1.0935849216e+02  2.2444113601e+02  1.7087899088e+02  4.013626e-14 9.
       24     2     3     0     0     0 -8.0781179155e+01  1.5861489894e+01  2.2267905298e+01  1.1752844678e+02  8.0869589020e+01  1.052307e-13 9.
        5     1     3     0   101     0 -9.9666614250e+00 -4.7162346552e+01  1.0772343714e+02  1.1811435214e+02  4.8000000000e+00 0. 9.
      -24     2     4     0     0     0  6.4114701458e+01 -4.7042530271e+01 -7.4660026955e+01  1.3458550812e+02  7.8838092148e+01  1.545674e-13 9.
       -5     1     4     0     0   103  2.6633139122e+01  7.8343386929e+01 -3.4698465210e+01  8.9855627887e+01  4.8000000000e+00 0. 9.
       -3     1     5     0     0   104 -8.4039093028e+01  3.7141272638e+01  9.2988805866e+00  9.2351299234e+01  5.0000000000e-01 0. 9.
        4     1     5     0   104     0  3.2579138729e+00 -2.1279782744e+01  1.2969024711e+01  2.5177147543e+01  1.5000000000e+00 0. 9.
       13     1     7     0     0     0  4.3364901535e+01 -3.5519005858e+01  1.9778814823e-01  5.6055015355e+01  1.0566000000e-01  2.587782e+03 9.
      -14     1     7     0     0     0  2.0749799923e+01 -1.1523524413e+01 -7.4857815103e+01  7.8530492764e+01  0.0000000000e+00 0. 9.
#pdf   21   21  3.697821e-02  3.380393e-02  1.959963e+02  2.606116e+00  2.847832e+00
</event>
<event>
    12  9999  1.000000e+00  1.933125e+02  7.884666e-03  1.061734e-01
       21    -1     0     0   101   102  0.0000000000e+00  0.0000000000e+00  1.0432146587e+02  1.0432146587e+02  0.0000000000e+00 0. 9.
       21    -1     0     0   102   103  0.0000000000e+00  0.0000000000e+00 -3.5824707968e+02  3.5824707968e+02  0.0000000000e+00 0. 9.
        6     2     1     2   101     0 -7.3166558618e+01 -4.9361858579e+01 -1.2808317745e+02  2.3337748736e+02  1.7398222000e+02  3.312739e-13 9.
       -6     2     1     2     0   103  7.3166558618e+01  4.9361858579e+01 -1.2584243636e+02  2.2919105819e+02  1.7000671746e+02  4.119357e-13 9.
       24     2     3     0     0     0 -7.3475043931e+01 -4.1976339155e+01 -1.1662855759e+01  1.1662401904e+02  7.9401161730e+01  1.649762e-13 9.
        5     1     3     0   101     0  3.0848531281e-01 -7.3855194240e+00 -1.1642032169e+02  1.1675346832e+02  4.8000000000e+00 0. 9.
      -24     2     4     0     0     0  2.8698443394e+00  8.0446163336e+01 -7.0971645713e+01  1.3463046541e+02  8.1293090228e+01  2.077361e-14 9.
       -5     1     4     0     0   103  7.0296714279e+01 -3.1084304757e+01 -5.4870790646e+01  9.4560592779e+01  4.8000000000e+00 0. 9.
      -13     1     5     0     0     0 -5.8237528232e+01 -1.3815935987e+01 -4.1519569835e+01  7.2844873705e+01  1.0566000000e-01  3.727796e+05 9.
       14     1     5     0     0     0 -1.5237515699e+01 -2.8160403168e+01  2.9856714076e+01  4.3779145340e+01  0.0000000000e+00 0. 9.
        1     1     7     0   104     0 -1.4472682039e+01 -1.2257623811e+01 -5.2648293923e+00  1.9685913630e+01  3.3000000000e-01 0. 9.
       -2     1     7     0     0   104  1.7342526379e+01  9.2703787147e+01 -6.5706816321e+01  1.1494455178e+02  3.3000000000e-01 0. 9.
#pdf   21   21  1.604946e-02  5.511494e-02  1.915521e+02  5.565069e+00  1.712279e+00
</event>
<event>
    12  9999  1.000000e+00  2.017062e+02  7.888499e-03  1.056262e-01
       21    -1     0     0   101   102  0.0000000000e+00  0.0000000000e+00  5.2672260083e+02  5.2672260083e+02  0.0000000000e+00 0. 9.
       21    -1     0     0   102   103  0.0000000000e+00  0.0000000000e+00 -1.5649160241e+02  1.5649160241e+02  0.0000000000e+00 0. 9.
        6     2     1     2   101     0 -8.6504179181e+01 -6.4715520517e+01  4.2805302011e+02  4.7304768679e+02  1.6992249510e+02  1.397625e-13 9.
       -6     2     1     2     0   103  8.6504179181e+01  6.4715520517e+01 -5.7822021693e+01  2.1016651644e+02  1.7074983698e+02  1.156992e-14 9.
       24     2     3     0     0     0 -3.2524633142e+01  1.5082136236e+01  3.0164922068e+02  3.1404322797e+02  7.9659111874e+01  6.280480e-16 9.
        5     1     3     0   101     0 -5.3979546039e+01 -7.9797656753e+01  1.2640379943e+02  1.5900445882e+02  4.8000000000e+00 0. 9.
      -24     2     4     0     0     0  7.0005520152e+01  8.1784781593e+01 -9.5921335467e+01  1.6502049632e+02  8.0257948233e+01  2.295558e-14 9.
       -5     1     4     0     0   103  1.6498659029e+01 -1.7069261076e+01  3.8099313774e+01  4.5146020128e+01  4.8000000000e+00 0. 9.
      -13     1     5     0     0     0 -6.7635272852e+00 -1.7350343407e+01  2.3387330929e+02  2.3461354539e+02  1.0566000000e-01  4.566838e+04 9.
       14     1     5     0     0     0 -2.5761105856e+01  3.2432479643e+01  6.7775911391e+01  7.9429682586e+01  0.0000000000e+00 0. 9.
       11     1     7     0     0     0  4.8612361479e+01 -2.0492104220e-01 -4.4492656112e+01  6.5899925109e+01  5.1100000000e-04 0. 9.
      -12     1     7     0     0     0  2.1393158673e+01  8.1989702635e+01 -5.1428679354e+01  9.9120571207e+01  0.0000000000e+00 0. 9.
#pdf   21   21  8.103425e-02  2.407563e-02  2.013572e+02  1.078276e+00  3.913520e+00
</event>
<event>
    12  9999  1.000000e+00  2.188262e+02  7.895857e-03  1.045934e-01
       21    -1     0     0   101   102  0.0000000000e+00  0.0000000000e+00  7.7321642523e+01  7.7321642523e+01  0.0000000000e+00 0. 9.
       21    -1     0     0   102   103  0.0000000000e+00  0.0000000000e+00 -1.1262239900e+03  1.1262239900e+03  0.0000000000e+00 0. 9.
        6     2     1     2   101     0  2.2540232060e+01  1.3882364516e+02 -1.1751035666e+02  2.4622191571e+02  1.6442773895e+02  7.646549e-14 9.
       -6     2     1     2     0   103 -2.2540232060e+01 -1.3882364516e+02 -9.3139199083e+02  9.5732371683e+02  1.7087302801e+02  4.926012e-14 9.
       24     2     3     0     0     0  3.0596180274e+01  1.6567564758e+02 -9.4209934197e+01  2.0945402180e+02  8.1307620191e+01  1.300128e-13 9.
        5     1     3     0   101     0 -8.0559482139e+00 -2.6852002414e+01 -2.3300422466e+01  3.6767893907e+01  4.8000000000e+00 0. 9.
      -24     2     4     0     0     0  3.8847302002e-01 -4.4991465562e+01 -7.0269842965e+02  7.0902150506e+02  8.3078449167e+01  5.757904e-15 9.
       -5     1     4     0     0   103 -2.2928705080e+01 -9.3832179600e+01 -2.2869356118e+02  2.4830221177e+02  4.8000000000e+00 0. 9.
      -11     1     5     0     0     0  3.1659273110e+01  9.4644152941e+01 -9.5881820277e+01  1.3839490135e+02  5.1100000000e-04 0. 9.
       12     1     5     0     0     0 -1.0630928367e+00  7.1031494636e+01  1.6718860800e+00  7.1059120454e+01  0.0000000000e+00 0. 9.
        3     1     7     0   104     0  2.3151644864e+01  7.8582433916e+00 -7.9644592278e+01  8.3314234848e+01  5.0000000000e-01 0. 9.
       -4     1     7     0     0   104 -2.2763171844e+01 -5.2849708954e+01 -6.2305383737e+02  6.2570727021e+02  1.5000000000e+00 0. 9.
#pdf   21   21  1.189564e-02  1.732652e-01  2.163713e+02  7.092789e+00  3.444993e-01
</event>
<event>
    12  9999  1.000000e+00  2.082031e+02  7.891360e-03  1.052219e-01
       21    -1     0     0   101   102  0.0000000000e+00  0.0000000000e+00  1.7293417799e+02  1.7293417799e+02  0.0000000000e+00 0. 9.
       21    -1     0     0   103   101  0.0000000000e+00  0.0000000000e+00 -2.6341050497e+02  2.6341050497e+02  0.0000000000e+00 0. 9.
        6     2     1     2   103     0  2.9151679805e+01 -1.1559778749e+02 -9.3196938943e+01  2.2796646458e+02  1.7050035377e+02  2.206027e-13 9.
       -6     2     1     2     0   102 -2.9151679805e+01  1.1559778749e+02  2.7206119646e+00  2.0837821838e+02  1.7088420424e+02  1.169227e-13 9.
       24     2     3     0     0     0  8.4673507392e+01 -1.0319702762e+02 -7.0536602670e+01  1.6654185205e+02  7.0296136475e+01  1.325299e-13 9.
        5     1     3     0   103     0 -5.5521827588e+01 -1.2400759864e+01 -2.2660336273e+01  6.1424612526e+01  4.8000000000e+00 0. 9.
      -24     2     4     0     0     0 -7.4385414546e+00  5.3229376441e-01  3.3502148552e+01  8.7208621465e+01  8.0170658377e+01  4.408939e-14 9.
       -5     1     4     0     0   102 -2.1713138350e+01  1.1506549372e+02 -3.0781536587e+01  1.2116959692e+02  4.8000000000e+00 0. 9.
       -1     1     5     0     0   104 -3.0201123311e+00 -3.7757009263e+01 -3.0896774302e+00  3.8004839608e+01  3.3000000000e-01 0. 9.
        2     1     5     0   104     0  8.7693619724e+01 -6.5440018362e+01 -6.7446925239e+01  1.2853701244e+02  3.3000000000e-01 0. 9.
       15     1     7     0     0     0 -3.1245863910e+01 -2.7696292003e+00  4.9289948217e+01  5.8451954133e+01  1.7768200000e+00  1.956639e-02 9.
      -16     1     7     0     0     0  2.3807322456e+01  3.3019229647e+00 -1.5787799665e+01  2.8756667332e+01  0.0000000000e+00 0. 9.
#pdf   21   21  2.660526e-02  4.052469e-02  2.080458e+02  3.568240e+00  2.367977e+00
</event>
<event>
    12  9999  1.000000e+00  1.907839e+02  7.883479e-03  1.063440e-01
       -2    -1     0     0     0   101  0.0000000000e+00  0.0000000000e+00  2.8923718987e+01  2.8923718987e+01  0.0000000000e+00 0. 9.
        2    -1     0     0   102     0  0.0000000000e+00  0.0000000000e+00 -1.3929958077e+03  1.3929958077e+03  0.0000000000e+00 0. 9.
       -6     2     1     2     0   101  7.4331070184e+01 -5.4925341797e+01 -9.1425118692e+02  9.3469571467e+02  1.7105246292e+02  2.042935e-13 9.
        6     2     1     2   102     0 -7.4331070184e+01  5.4925341797e+01 -4.4982090180e+02  4.8722381202e+02  1.6280754939e+02  2.910650e-13 9.
      -24     2     3     0     0     0  7.4240441379e+01  2.7199732262e+00 -7.9279311647e+02  8.0016656008e+02  7.8908535380e+01  7.967056e-14 9.
       -5     1     3     0     0   101  9.0628805353e-02 -5.7645315024e+01 -1.2145807045e+02  1.3452915459e+02  4.8000000000e+00 0. 9.
       24     2     4     0     0     0 -3.5207820521e+01  8.6748360949e+01 -3.9155076409e+02  4.1001123428e+02  7.7668157100e+01  1.169124e-14 9.
        5     1     4     0   102     0 -3.9123249663e+01 -3.1823019152e+01 -5.8270137710e+01  7.7212577737e+01  4.8000000000e+00 0. 9.
       13     1     5     0     0     0 -1.2034182924e+01  5.0721848865e+00 -2.6848320904e+02  2.6880065721e+02  1.0566000000e-01  9.717887e+05 9.
      -14     1     5     0     0     0  8.6274624303e+01 -2.3522116603e+00 -5.2430990743e+02  5.3136590286e+02  0.0000000000e+00 0. 9.
       -1     1     7     0     0   103  1.2377359912e+01  5.8408775021e+01 -1.3602716640e+02  1.4855397315e+02  3.3000000000e-01 0. 9.
        2     1     7     0   103     0 -4.7585180433e+01  2.8339585928e+01 -2.5552359768e+02  2.6145726114e+02  3.3000000000e-01 0. 9.
#pdf   -2    2  4.449803e-03  2.143070e-01  1.872116e+02  8.052450e-01  4.297522e-01
</event>
<event>
    12  9999  1.000000e+00  1.745886e+02  7.875493e-03  1.075084e-01
       21    -1     0     0   101   102  0.0000000000e+00  0.0000000000e+00  5.1463881532e+02  5.1463881532e+02  0.0000000000e+00 0. 9.
       21    -1     0     0   103   101  0.0000000000e+00  0.0000000000e+00 -6.5635343510e+01  6.5635343510e+01  0.0000000000e+00 0. 9.
        6     2     1     2   103     0 -3.5952068772e+01  6.9609057716e+00  1.3418677384e+02  2.2042587607e+02  1.7099845353e+02  5.388610e-13 9.
       -6     2     1     2     0   102  3.5952068772e+01 -6.9609057716e+00  3.1481669798e+02  3.5984828276e+02  1.7041193568e+02  1.846697e-13 9.
       24     2     3     0     0     0 -6.6583210966e+01  4.6177484697e+01  1.2471316478e+02  1.6954369645e+02  8.1400291517e+01  2.228102e-13 9.
        5     1     3     0   103     0  3.0631142194e+01 -3.9216578925e+01  9.4736090519e+00  5.0882179623e+01  4.8000000000e+00 0. 9.
      -24     2     4     0     0     0 -3.4343711009e+01  3.2681800389e+01  1.8888716282e+02  2.1020093520e+02  7.9110570215e+01  1.769006e-14 9.
       -5     1     4     0     0   102  7.0295779781e+01 -3.9642706160e+01  1.2592953516e+02  1.4964734756e+02  4.8000000000e+00 0. 9.
       -3     1     5     0     0   104 -7.6883252559e+01  3.8926699506e+01  6.3541263917e+01  1.0707037255e+02  5.0000000000e-01 0. 9.
        4     1     5     0   104     0  1.0300041593e+01  7.2507851908e+00  6.1171900868e+01  6.2473323895e+01  1.5000000000e+00 0. 9.
        1     1     7     0   105     0 -3.7912601490e+00  3.4075297847e+01  2.2464528237e+01  4.0991017379e+01  3.3000000000e-01 0. 9.
       -2     1     7     0     0   105 -3.0552450860e+01 -1.3934974580e+00  1.6642263458e+02  1.6920991782e+02  3.3000000000e-01 0. 9.
#pdf   21   21  7.917520e-02  1.009775e-02  1.743021e+02  1.124483e+00  8.042842e+00
</event>
<event>
    12  9999  1.000000e+00  2.542127e+02  7.909430e-03  1.027457e-01
       21    -1     0     0   101   102  0.0000000000e+00  0.0000000000e+00  1.2346871806e+03  1.2346871806e+03  0.0000000000e+00 0. 9.
       21    -1     0     0   103   101  0.0000000000e+00  0.0000000000e+00 -8.4745285323e+01  8.4745285323e+01  0.0000000000e+00 0. 9.
        6     2     1     2   103     0  3.6948118063e+01  1.8738961379e+02  1.6659692592e+02  3.0368293478e+02  1.6729841112e+02  4.791305e-13 9.
       -6     2     1     2     0   102 -3.6948118063e+01 -1.8738961379e+02  9.8334496933e+02  1.0157495311e+03  1.6822529680e+02  6.378662e-15 9.
       24     2     3     0     0     0  7.4649772035e+01  6.6102859203e+01  8.8537196586e+01  1.5452445230e+02  7.8081974361e+01  1.031699e-13 9.
        5     1     3     0   103     0 -3.7701653972e+01  1.2128675459e+02  7.8059729337e+01  1.4915848248e+02  4.8000000000e+00 0. 9.
      -24     2     4     0     0     0 -8.9717519007e+00 -1.8283526223e+02  6.2348080386e+02  6.5473889863e+02  8.0283791342e+01  3.376308e-14 9.
       -5     1     4     0     0   102 -2.7976366163e+01 -4.5543515617e+00  3.5986416547e+02  3.6101063249e+02  4.8000000000e+00 0. 9.
       -3     1     5     0     0   104 -7.3726579606e-01  4.5279831215e+01  1.6551585993e+01  4.8218374865e+01  5.0000000000e-01 0. 9.
        4     1     5     0   104     0  7.5387037831e+01  2.0823027988e+01  7.1985610593e+01  1.0630607744e+02  1.5000000000e+00 0. 9.
       13     1     7     0     0     0 -3.2869031079e+00 -1.3830274347e+01  7.7117303441e+00  1.6172883772e+01  1.0566000000e-01  2.179380e+05 9.
      -14     1     7     0     0     0 -5.6848487927e+00 -1.6900498788e+02  6.1576907351e+02  6.3856601486e+02  0.0000000000e+00 0. 9.
#pdf   21   21  1.899519e-01  1.303774e-02  2.539070e+02  2.831198e-01  6.588093e+00
</event>
<event>
    12  9999  1.000000e+00  2.445908e+02  7.905932e-03  1.032150e-01
       21    -1     0     0   101   102  0.0000000000e+00  0.0000000000e+00  3.5374047996e+02  3.5374047996e+02  0.0000000000e+00 0. 9.
       21    -1     0     0   102   103  0.0000000000e+00  0.0000000000e+00 -2.0250362679e+02  2.0250362679e+02  0.0000000000e+00 0. 9.
        6     2     1     2   101     0  7.3829931730e+01 -1.5931295431e+02  1.8860253880e+02  3.0904818719e+02  1.7061180538e+02  8.275451e-14 9.
       -6     2     1     2     0   103 -7.3829931730e+01  1.5931295431e+02 -3.7365685627e+01  2.4719591956e+02  1.6993572888e+02  2.857234e-14 9.
       24     2     3     0     0     0  9.5706342574e+01 -1.1670858486e+02  7.8436692412e+01  1.8882646138e+02  8.1990975181e+01  1.446439e-13 9.
        5     1     3     0   101     0 -2.1876410844e+01 -4.2604369449e+01  1.1016584639e+02  1.2022172581e+02  4.8000000000e+00 0. 9.
      -24     2     4     0     0     0 -3.9794184617e+01  1.2761915970e+01 -3.1415638964e+01  9.6550368755e+01  8.1170115847e+01  1.840790e-13 9.
       -5     1     4     0     0   103 -3.4035747113e+01  1.4655103834e+02 -5.9500466628e+00  1.5064555080e+02  4.8000000000e+00 0. 9.
      -15     1     5     0     0     0  8.9932059182e+01 -6.4993613605e+01  7.9940552365e+01  1.3676839576e+02  1.7768200000e+00  6.100208e-04 9.
       16     1     5     0     0     0  5.7742833923e+00 -5.1714971258e+01 -1.5038599533e+00  5.2058065616e+01  0.0000000000e+00 0. 9.
        1     1     7     0   104     0 -1.4817497496e+01  3.2715185896e+01 -4.8461742906e+01  6.0319905883e+01  3.3000000000e-01 0. 9.
       -2     1     7     0     0   104 -2.4976687122e+01 -1.9953269926e+01  1.7046103942e+01  3.6230462872e+01  3.3000000000e-01 0. 9.
#pdf   21   21  5.442161e-02  3.115440e-02  2.443555e+02  1.707686e+00  3.053964e+00
</event>
<event>
    12  9999  1.000000e+00  1.795680e+02  7.878023e-03  1.071365e-01
       21    -1     0     0   101   102  0.0000000000e+00  0.0000000000e+00  1.0644123792e+02  1.0644123792e+02  0.0000000000e+00 0. 9.
       21    -1     0     0   102   103  0.0000000000e+00  0.0000000000e+00 -3.7425930731e+02  3.7425930731e+02  0.0000000000e+00 0. 9.
        6     2     1     2   101     0 -2.9283670819e+01 -4.7420584162e+01 -2.8814355283e+01  1.8158713051e+02  1.7040356134e+02  2.376747e-13 9.
       -6     2     1     2     0   103  2.9283670819e+01  4.7420584162e+01 -2.3900371411e+02  2.9911341471e+02  1.7099653308e+02  1.155809e-13 9.
       24     2     3     0     0     0  4.2097692237e+00 -7.3796650513e+01  2.6349527982e+01  1.1170436140e+02  7.9497792088e+01  2.621841e-15 9.
        5     1     3     0   101     0 -3.3493440043e+01  2.6376066352e+01 -5.5163883265e+01  6.9882769114e+01  4.8000000000e+00 0. 9.
      -24     2     4     0     0     0 -3.4564808268e+01 -1.6588668429e+01 -1.1255800104e+02  1.4359694918e+02  8.0503852857e+01  2.459003e-15 9.
       -5     1     4     0     0   103  6.3848479087e+01  6.4009252590e+01 -1.2644571307e+02  1.5551646553e+02  4.8000000000e+00 0. 9.
       -3     1     5     0     0   104 -3.2666106231e+01 -5.2106357664e+01  3.0585977055e+01  6.8686963812e+01  5.0000000000e-01 0. 9.
        4     1     5     0   104     0  3.6875875455e+01 -2.1690292850e+01 -4.2364490730e+00  4.3017397588e+01  1.5000000000e+00 0. 9.
        1     1     7     0   105     0 -1.5366758740e+01 -4.7581910345e+01 -8.1916138705e+01  9.5971548631e+01  3.3000000000e-01 0. 9.
       -2     1     7     0     0   105 -1.9198049528e+01  3.0993241916e+01 -3.0641862337e+01  4.7625400551e+01  3.3000000000e-01 0. 9.
#pdf   21   21  1.637558e-02  5.757835e-02  1.792864e+02  5.475147e+00  1.637576e+00
</event>
<event>
    12  9999  1.000000e+00  2.099329e+02  7.892108e-03  1.051169e-01
       21    -1     0     0   101   102  0.0000000000e+00  0.0000000000e+00  6.2325206761e+02  6.2325206761e+02  0.0000000000e+00 0. 9.
       21    -1     0     0   103   101  0.0000000000e+00  0.0000000000e+00 -7.7047991014e+01  7.7047991014e+01  0.0000000000e+00 0. 9.
        6     2     1     2   103     0 -1.0978338823e+02  5.1445290797e+01  1.7257008099e+02  2.7167589045e+02  1.7125520815e+02  2.604642e-13 9.
       -6     2     1     2     0   102  1.0978338823e+02 -5.1445290797e+01  3.7363399560e+02  4.2862416818e+02  1.7151473581e+02  3.259180e-13 9.
       24     2     3     0     0     0 -2.4627766193e+01  3.8857422663e+01  1.5850380451e+02  1.8432124247e+02  8.2063622978e+01  1.243851e-13 9.
        5     1     3     0   103     0 -8.5155622041e+01  1.2587868134e+01  1.4066276480e+01  8.7354647978e+01  4.8000000000e+00 0. 9.
      -24     2     4     0     0     0  8.4302682612e+01  2.7306462105e+01  1.5434888166e+02  1.9418844961e+02  7.7672334353e+01  4.092642e-14 9.
       -5     1     4     0     0   102  2.5480705622e+01 -7.8751752902e+01  2.1928511394e+02  2.3443571857e+02  4.8000000000e+00 0. 9.
       -1     1     5     0     0   104 -5.6023829513e+00 -1.3910321167e+01  1.0738943760e+02  1.0843193227e+02  3.3000000000e-01 0. 9.
        2     1     5     0   104     0 -1.9025383242e+01  5.2767743829e+01  5.1114366919e+01  7.5889310195e+01  3.3000000000e-01 0. 9.
        3     1     7     0   105     0  1.1539565817e+00  1.2666306816e+01 -5.1383650277e+00  1.3726606985e+01  5.0000000000e-01 0. 9.
       -4     1     7     0     0   105  8.3148726030e+01  1.4640155289e+01  1.5948724669e+02  1.8046184263e+02  1.5000000000e+00 0. 9.
#pdf   21   21  9.588493e-02  1.185354e-02  2.098270e+02  8.615925e-01  7.112470e+00
</event>
<event>
    12  9999  1.000000e+00  1.730481e+02  7.874696e-03  1.076261e-01
       21    -1     0     0   101   102  0.0000000000e+00  0.0000000000e+00  6.2663122180e+02  6.2663122180e+02  0.0000000000e+00 0. 9.
       21    -1     0     0   102   103  0.0000000000e+00  0.0000000000e+00 -6.7811971301e+01  6.7811971301e+01  0.0000000000e+00 0. 9.
        6     2     1     2   101     0 -3.4730138511e+00  3.0384209241e+01  4.6691924870e+02  4.9760267343e+02  1.6929138724e+02  2.714459e-13 9.
       -6     2     1     2     0   103  3.4730138511e+00 -3.0384209241e+01  9.1900001798e+01  1.9684051968e+02  1.7136311698e+02  9.188345e-14 9.
       24     2     3     0     0     0  1.5827786515e+01 -1.1556226903e+01  1.0851674300e+02  1.3620688323e+02  7.9952275270e+01  6.131323e-15 9.
        5     1     3     0   101     0 -1.9300800366e+01  4.1940436144e+01  3.5840250570e+02  3.6139579020e+02  4.8000000000e+00 0. 9.
      -24     2     4     0     0     0  2.2177575819e+01 -1.7419304210e-01  1.2368489354e+02  1.4892575098e+02  7.9931540720e+01  1.523670e-13 9.
       -5     1     4     0     0   103 -1.8704561967e+01 -3.0210016199e+01 -3.1784891739e+01  4.7914768704e+01  4.8000000000e+00 0. 9.
       -1     1     5     0     0   104 -7.9182124731e+00 -6.3771379702e+00 -1.0567176109e+01  1.4667654495e+01  3.3000000000e-01 0. 9.
        2     1     5     0   104     0  2.3745998988e+01 -5.1790889326e+00  1.1908391911e+02  1.2153922873e+02  3.3000000000e-01 0. 9.
        3     1     7     0   105     0  4.5513424539e+00  2.5091194161e+01  1.1367216118e+02  1.1649846767e+02  5.0000000000e-01 0. 9.
       -4     1     7     0     0   105  1.7626233365e+01 -2.5265387203e+01  1.0012732356e+01  3.2427283302e+01  1.5000000000e+00 0. 9.
#pdf   21   21  9.640480e-02  1.043261e-02  1.720315e+02  8.726532e-01  7.842853e+00
</event>
<event>
    12  9999  1.000000e+00  2.490626e+02  7.907574e-03  1.029940e-01
       21    -1     0     0   101   102  0.0000000000e+00  0.0000000000e+00  5.7989809023e+02  5.7989809023e+02  0.0000000000e+00 0. 9.
       21    -1     0     0   103   101  0.0000000000e+00  0.0000000000e+00 -1.1279203948e+02  1.1279203948e+02  0.0000000000e+00 0. 9.
        6     2     1     2   103     0  3.1747466586e+01 -1.7738535951e+02  1.5507604752e+02  2.9359062523e+02  1.7225970888e+02  1.630373e-13 9.
       -6     2     1     2     0   102 -3.1747466586e+01  1.7738535951e+02  3.1203000323e+02  3.9909950448e+02  1.7159319381e+02  2.600666e-13 9.
       24     2     3     0     0     0 -2.2880546781e+00 -1.5142284857e+01  6.1250472611e+01  1.0304532749e+02  8.1438290368e+01  9.311017e-15 9.
        5     1     3     0   103     0  3.4035521265e+01 -1.6224307466e+02  9.3825574911e+01  1.9054529773e+02  4.8000000000e+00 0. 9.
      -24     2     4     0     0     0 -2.8271626167e+01  1.1663408030e+02  3.0511612440e+02  3.3766953531e+02  8.0759347268e+01  8.925148e-14 9.
       -5     1     4     0     0   102 -3.4758404194e+00  6.0751279210e+01  6.9138788245e+00  6.1429969174e+01  4.8000000000e+00 0. 9.
       -3     1     5     0     0   104 -2.3030635773e+01 -3.6369806248e+01  5.9279135934e+01  7.3262807397e+01  5.0000000000e-01 0. 9.
        4     1     5     0   104     0  2.0742581095e+01  2.1227521392e+01  1.9713366767e+00  2.9782520095e+01  1.5000000000e+00 0. 9.
       13     1     7     0     0     0 -1.3346372522e+01  4.0066428877e+00  2.1480067655e+00  1.4099785240e+01  1.0566000000e-01  2.236823e+04 9.
      -14     1     7     0     0     0 -1.4925253645e+01  1.1262743741e+02  3.0296811764e+02  3.2356975007e+02  0.0000000000e+00 0. 9.
#pdf   21   21  8.921509e-02  1.735262e-02  2.488327e+02  9.328285e-01  5.193264e+00
</event>
<event>
    12  9999  1.000000e+00  1.951570e+02  7.885522e-03  1.060506e-01
       21    -1     0     0   101   102  0.0000000000e+00  0.0000000000e+00  2.5529733990e+03  2.5529733990e+03  0.0000000000e+00 0. 9.
       21    -1     0     0   103   101  0.0000000000e+00  0.0000000000e+00 -2.0737393069e+01  2.0737393069e+01  0.0000000000e+00 0. 9.
        6     2     1     2   103     0  8.2965745303e+01 -3.2519615384e+01  5.7773491327e+02  6.0934544625e+02  1.7199826328e+02  4.053242e-14 9.
       -6     2     1     2     0   102 -8.2965745303e+01  3.2519615384e+01  1.9545010926e+03  1.9643653458e+03  1.7525938029e+02  7.882834e-14 9.
       24     2     3     0     0     0 -2.1600122438e+01 -3.4770174664e+01  2.6989328316e+02  2.8418610847e+02  7.9017906937e+01  7.451016e-14 9.
        5     1     3     0   103     0  1.0456586774e+02  2.2505592801e+00  3.0784163012e+02  3.2515933778e+02  4.8000000000e+00 0. 9.
      -24     2     4     0     0     0 -4.9823215935e+01  3.0209536598e+00  1.8281527738e+03  1.8303670773e+03  7.4897224128e+01  1.438738e-13 9.
       -5     1     4     0     0   102 -3.3142529367e+01  2.9498661724e+01  1.2634831880e+02  1.3399826850e+02  4.8000000000e+00 0. 9.
      -15     1     5     0     0     0 -1.6364443189e+01 -5.0194910448e+01  2.5959382235e+02  2.6491401195e+02  1.7768200000e+00  9.799368e-02 9.
       16     1     5     0     0     0 -5.2356792499e+00  1.5424735784e+01  1.0299460805e+01  1.9272096515e+01  0.0000000000e+00 0. 9.
        1     1     7     0   104     0 -6.4857477986e+01 -1.4941947019e+01  1.3698252356e+03  1.3714412270e+03  3.3000000000e-01 0. 9.
       -2     1     7     0     0   104  1.5034262050e+01  1.7962900679e+01  4.5832753827e+02  4.5892585030e+02  3.3000000000e-01 0. 9.
#pdf   21   21  3.927651e-01  3.190368e-03  1.937118e+02  3.786751e-02  1.823605e+01
</event>
<event>
    12  9999  1.000000e+00  1.865279e+02  7.881446e-03  1.066377e-01
       21    -1     0     0   101   102  0.0000000000e+00  0.0000000000e+00  6.9741002333e+02  6.9741002333e+02  0.0000000000e+00 0. 9.
       21    -1     0     0   103   101  0.0000000000e+00  0.0000000000e+00 -1.6584526000e+02  1.6584526000e+02  0.0000000000e+00 0. 9.
        6     2     1     2   103     0  8.3724692988e+00  7.1664065337e+01 -9.4688777813e+01  2.1010544663e+02  1.7312566984e+02  3.313505e-13 9.
       -6     2     1     2     0   102 -8.3724692988e+00 -7.1664065337e+01  6.2625354114e+02  6.5314983670e+02  1.7089580127e+02  9.526584e-14 9.
       24     2     3     0     0     0  2.3928762491e+01  1.0175750209e+02 -2.8267460778e+01  1.3538968825e+02  8.1265881140e+01  3.549531e-14 9.
        5     1     3     0   103     0 -1.5556293192e+01 -3.0093436758e+01 -6.6421317035e+01  7.4715758381e+01  4.8000000000e+00 0. 9.
      -24     2     4     0     0     0  3.1070415845e+01 -6.7205374040e+01  5.8755267339e+02  5.9750436715e+02  7.9444268022e+01  1.324292e-13 9.
       -5     1     4     0     0   102 -3.9442885144e+01 -4.4586912966e+00  3.8700867748e+01  5.5645469546e+01  4.8000000000e+00 0. 9.
       -1     1     5     0     0   104 -1.8820820065e+01  7.8221420567e+00  1.3068247601e+01  2.4213574078e+01  3.3000000000e-01 0. 9.
        2     1     5     0   104     0  4.2749582556e+01  9.3935360038e+01 -4.1335708379e+01  1.1117611417e+02  3.3000000000e-01 0. 9.
       13     1     7     0     0     0  3.0777213393e+01 -7.7142287087e+01  3.4907749465e+02  3.5882206977e+02  1.0566000000e-01  3.905520e+05 9.
      -14     1     7     0     0     0  2.9320245236e-01  9.9369130464e+00  2.3847517874e+02  2.3868229738e+02  0.0000000000e+00 0. 9.
#pdf   21   21  1.072938e-01  2.551466e-02  1.855026e+02  7.476648e-01  3.721084e+00
</event>
<event>
    12  9999  1.000000e+00  1.943630e+02  7.885154e-03  1.061033e-01
       21    -1     0     0   101   102  0.0000000000e+00  0.0000000000e+00  7.4423916962e+01  7.4423916962e+01  0.0000000000e+00 0. 9.
       21    -1     0     0   102   103  0.0000000000e+00  0.0000000000e+00 -5.0982951822e+02  5.0982951822e+02  0.0000000000e+00 0. 9.
        6     2     1     2   101     0  8.9324174289e+01  1.4158462972e+01 -1.9810111647e+02  2.7736880002e+02  1.7178512361e+02  1.435402e-14 9.
       -6     2     1     2     0   103 -8.9324174289e+01 -1.4158462972e+01 -2.3730448479e+02  3.0688463516e+02  1.7229477825e+02  2.900294e-14 9.
       24     2     3     0     0     0  1.2670605624e+02  7.8724432550e+00 -1.3794110246e+02  2.0610038887e+02  8.5634236695e+01  3.819355e-14 9.
        5     1     3     0   101     0 -3.7381881952e+01  6.2860197173e+00 -6.0160014011e+01  7.1268411151e+01  4.8000000000e+00 0. 9.
      -24     2     4     0     0     0 -6.3798030146e+01  4.0322314999e+00 -2.5283040796e+02  2.7157769972e+02  7.5794355024e+01  5.892980e-14 9.
       -5     1     4     0     0   103 -2.5526144144e+01 -1.8190694472e+01  1.5525923170e+01  3.5306935445e+01  4.8000000000e+00 0. 9.
       -1     1     5     0     0   104  4.0004094041e+01 -2.3117960916e+01 -8.0739642234e+00  4.6904855348e+01  3.3000000000e-01 0. 9.
        2     1     5     0   104     0  8.6701962200e+01  3.0990404171e+01 -1.2986713824e+02  1.5919553352e+02  3.3000000000e-01 0. 9.
        1     1     7     0   105     0 -1.9584369981e+00  1.7707686927e+01 -1.4823073963e+02  1.4929788586e+02  3.3000000000e-01 0. 9.
       -2     1     7     0     0   105 -6.1839593148e+01 -1.3675455427e+01 -1.0459966833e+02  1.2227981386e+02  3.3000000000e-01 0. 9.
#pdf   21   21  1.144983e-02  7.843531e-02  1.941376e+02  7.307081e+00  1.127195e+00
</event>
<event>
    12  9999  1.000000e+00  1.894284e+02  7.882836e-03  1.064366e-01
       21    -1     0     0   101   102  0.0000000000e+00  0.0000000000e+00  1.7002542032e+03  1.7002542032e+03  0.0000000000e+00 0. 9.
       21    -1     0     0   103   101  0.0000000000e+00  0.0000000000e+00 -3.9947296072e+01  3.9947296072e+01  0.0000000000e+00 0. 9.
        6     2     1     2   103     0 -1.7781894001e+01 -1.1703282073e+02  2.8122652069e+02  3.5049338340e+02  1.7246558783e+02  7.587066e-14 9.
       -6     2     1     2     0   102  1.7781894001e+01  1.1703282073e+02  1.3790803864e+03  1.3897081159e+03  1.2414933822e+02  1.505340e-13 9.
       24     2     3     0     0     0 -2.9020735055e+01 -5.6439786550e+01  5.4366951341e+01  1.1536335226e+02  7.9531660849e+01  1.726588e-13 9.
        5     1     3     0   103     0  1.1238841054e+01 -6.0593034177e+01  2.2685956935e+02  2.3513003114e+02  4.8000000000e+00 0. 9.
      -24     2     4     0     0     0 -1.2012864086e+01  4.5398099300e+01  8.0774678419e+02  8.1311086824e+02  8.0555076508e+01  2.245096e-13 9.
       -5     1     4     0     0   102  2.9794758087e+01  7.1634721427e+01  5.7133360223e+02  5.7659724762e+02  4.8000000000e+00 0. 9.
      -11     1     5     0     0     0  2.0215649330e+01 -3.9171948743e+01  4.3772442791e+01  6.2121983181e+01  5.1100000000e-04 0. 9.
       12     1     5     0     0     0 -4.9236384386e+01 -1.7267837807e+01  1.0594508550e+01  5.3241369078e+01  0.0000000000e+00 0. 9.
       11     1     7     0     0     0  2.8201914695e+01  2.7312307529e+00  4.2017748680e+02  4.2113172289e+02  5.1100000000e-04 0. 9.
      -12     1     7     0     0     0 -4.0214778780e+01  4.2666868547e+01  3.8756929739e+02  3.9197914534e+02  0.0000000000e+00 0. 9.
#pdf   21   21  2.615776e-01  6.145738e-03  1.715399e+02  1.526705e-01  1.158346e+01
</event>
<event>
    12  9999  1.000000e+00  2.299499e+02  7.900341e-03  1.039748e-01
       21    -1     0     0   101   102  0.0000000000e+00  0.0000000000e+00  5.3231339409e+02  5.3231339409e+02  0.0000000000e+00 0. 9.
       21    -1     0     0   102   103  0.0000000000e+00  0.0000000000e+00 -9.9352324422e+01  9.9352324422e+01  0.0000000000e+00 0. 9.
        6     2     1     2   101     0  8.3383636083e+01  1.2924495175e+02  2.1227319476e+02  3.1298886007e+02  1.7101178027e+02  1.290052e-13 9.
       -6     2     1     2     0   103 -8.3383636083e+01 -1.2924495175e+02  2.2068787491e+02  3.1867685844e+02  1.7086460621e+02  2.792702e-14 9.
       24     2     3     0     0     0  7.7214187729e+01  1.4546944057e+02  2.2566832161e+02  2.9054413789e+02  7.9789195729e+01  6.547989e-14 9.
        5     1     3     0   101     0  6.1694483540e+00 -1.6224488817e+01 -1.3395126851e+01  2.2444722180e+01  4.8000000000e+00 0. 9.
      -24     2     4     0     0     0 -1.0174214084e+02 -1.4678926073e+02  1.5686644252e+02  2.4982155577e+02  7.6845160212e+01  9.370582e-14 9.
       -5     1     4     0     0   103  1.8358504761e+01  1.7544308979e+01  6.3821432382e+01  6.8855302671e+01  4.8000000000e+00 0. 9.
      -11     1     5     0     0     0  4.7337039764e+01  1.1261803807e+02  1.0200482733e+02  1.5914962341e+02  5.1100000000e-04 0. 9.
       12     1     5     0     0     0  2.9877147965e+01  3.2851402501e+01  1.2366349428e+02  1.3139451448e+02  0.0000000000e+00 0. 9.
       15     1     7     0     0     0 -7.5937985096e+01 -5.5969223105e+01  1.0834171891e+02  1.4366703401e+02  1.7768200000e+00  1.366155e-01 9.
      -16     1     7     0     0     0 -2.5804155747e+01 -9.0820037628e+01  4.8524723611e+01  1.0615452176e+02  0.0000000000e+00 0. 9.
#pdf   21   21  8.189437e-02  1.528497e-02  2.298952e+02  1.050890e+00  5.785011e+00
</event>
<event>
    12  9999  1.000000e+00  2.597420e+02  7.911382e-03  1.024858e-01
       21    -1     0     0   101   102  0.0000000000e+00  0.0000000000e+00  9.5695277099e+02  9.5695277099e+02  0.0000000000e+00 0. 9.
       21    -1     0     0   102   103  0.0000000000e+00  0.0000000000e+00 -9.2861566735e+01  9.2861566735e+01  0.0000000000e+00 0. 9.
        6     2     1     2   101     0 -1.7264248236e+02  9.6206732561e+01  6.9025075440e+02  7.3767968938e+02  1.6930463099e+02  7.062670e-14 9.
       -6     2     1     2     0   103  1.7264248236e+02 -9.6206732561e+01  1.7384044986e+02  3.1213464835e+02  1.6776881291e+02  1.369228e-14 9.
       24     2     3     0     0     0 -1.0182470864e+02  1.2913402789e+02  4.3085873833e+02  4.6674312513e+02  7.1875058287e+01  1.351432e-13 9.
        5     1     3     0   101     0 -7.0817773719e+01 -3.2927295334e+01  2.5939201606e+02  2.7093656425e+02  4.8000000000e+00 0. 9.
      -24     2     4     0     0     0  1.7643734016e+02 -9.4422120404e+01  1.9467611937e+02  2.9034586890e+02  7.9726158248e+01  5.083979e-14 9.
       -5     1     4     0     0   103 -3.7948578009e+00 -1.7846121574e+00 -2.0835669504e+01  2.1788779451e+01  4.8000000000e+00 0. 9.
       -3     1     5     0     0   104 -1.3508674540e+01  4.7422551521e+01  2.0481916576e+02  2.1067160070e+02  5.0000000000e-01 0. 9.
        4     1     5     0   104     0 -8.8316034102e+01  8.1711476374e+01  2.2603957257e+02  2.5607152442e+02  1.5000000000e+00 0. 9.
        1     1     7     0   105     0  1.2425388435e+02 -1.0047605240e+02  1.6633033858e+02  2.3065202213e+02  3.3000000000e-01 0. 9.
       -2     1     7     0     0   105  5.2183455814e+01  6.0539319939e+00  2.8345780785e+01  5.9693846764e+01  3.3000000000e-01 0. 9.
#pdf   21   21  1.472235e-01  1.428639e-02  2.592442e+02  4.437896e-01  6.111668e+00
</event>
<event>
    12  9999  1.000000e+00  1.932970e+02  7.884658e-03  1.061744e-01
       21    -1     0     0   101   102  0.0000000000e+00  0.0000000000e+00  2.0008348286e+03  2.0008348286e+03  0.0000000000e+00 0. 9.
       21    -1     0     0   102   103  0.0000000000e+00  0.0000000000e+00 -2.0911712450e+01  2.0911712450e+01  0.0000000000e+00 0. 9.
        6     2     1     2   101     0  4.5782316377e+01 -7.5279737883e+01  6.5343912532e+02  6.8106494808e+02  1.7059810544e+02  6.821131e-14 9.
       -6     2     1     2     0   103 -4.5782316377e+01  7.5279737883e+01  1.3264839909e+03  1.3406815930e+03  1.7350589720e+02  4.078055e-14 9.
       24     2     3     0     0     0  3.4868858260e+01 -1.3388131399e+00  5.2630693126e+02  5.3351157236e+02  8.0112310261e+01  4.382424e-14 9.
        5     1     3     0   101     0  1.0913458117e+01 -7.3940924743e+01  1.2713219406e+02  1.4755337572e+02  4.8000000000e+00 0. 9.
      -24     2     4     0     0     0 -1.8516791446e+01  4.7258790872e+01  1.2577272902e+03  1.2614407815e+03  8.2332520008e+01  8.683808e-14 9.
       -5     1     4     0     0   103 -2.7265524931e+01  2.8020947011e+01  6.8756700708e+01  7.9240811540e+01  4.8000000000e+00 0. 9.
       -3     1     5     0     0   104  3.3524463593e+01 -2.5641633257e+01  1.3498390344e+02  1.4142944249e+02  5.0000000000e-01 0. 9.
        4     1     5     0   104     0  1.3443946671e+00  2.4302820117e+01  3.9132302782e+02  3.9208212987e+02  1.5000000000e+00 0. 9.
       11     1     7     0     0     0  9.7348483811e+00 -1.3549541276e+01  7.5859421035e+01  7.7672447507e+01  5.1100000000e-04 0. 9.
      -12     1     7     0     0     0 -2.8251639827e+01  6.0808332147e+01  1.1818678691e+03  1.1837683340e+03  0.0000000000e+00 0. 9.
#pdf   21   21  3.078207e-01  3.217187e-03  1.920072e+02  9.480109e-02  1.812659e+01
</event>
<event>
    12  9999  1.000000e+00  1.994707e+02  7.887493e-03  1.057691e-01
       -1    -1     0     0     0   101  0.0000000000e+00  0.0000000000e+00  5.6271012225e+01  5.6271012225e+01  0.0000000000e+00 0. 9.
        1    -1     0     0   102     0  0.0000000000e+00  0.0000000000e+00 -7.2684706243e+02  7.2684706243e+02  0.0000000000e+00 0. 9.
       -6     2     1     2     0   101  6.3568564321e+01 -8.0678012143e+01 -3.9957112609e+02  4.4651813048e+02  1.7079652230e+02  1.276594e-13 9.
        6     2     1     2   102     0 -6.3568564321e+01  8.0678012143e+01 -2.7100492412e+02  3.3659994418e+02  1.7118980551e+02  5.997871e-14 9.
      -24     2     3     0     0     0 -1.6385486514e+01 -4.5521971804e+01 -1.1389145546e+02  1.4774645908e+02  8.0728052497e+01  1.201003e-13 9.
       -5     1     3     0     0   101  7.9954050835e+01 -3.5156040339e+01 -2.8567967063e+02  2.9877167139e+02  4.8000000000e+00 0. 9.
       24     2     4     0     0     0 -3.5137117765e+01 -1.9250315054e+01 -8.2542749538e+01  1.2134416847e+02  7.9409760390e+01  8.184375e-15 9.
        5     1     4     0   102     0 -2.8431446556e+01  9.9928327197e+01 -1.8846217458e+02  2.1525577571e+02  4.8000000000e+00 0. 9.
        1     1     5     0   103     0 -2.6356006967e+01  9.1772832042e+00 -7.4636210956e+01  7.9683966494e+01  3.3000000000e-01 0. 9.
       -2     1     5     0     0   103  9.9705204532e+00 -5.4699255008e+01 -3.9255244502e+01  6.8062492589e+01  3.3000000000e-01 0. 9.
       -1     1     7     0     0   104 -4.6884322587e+01  9.5306095373e+00 -2.0706074145e+01  5.2132740472e+01  3.3000000000e-01 0. 9.
        2     1     7     0   104     0  1.1747204822e+01 -2.8780924592e+01 -6.1836675394e+01  6.9211427996e+01  3.3000000000e-01 0. 9.
#pdf   -1    1  8.657079e-03  1.118226e-01  1.993022e+02  5.894450e-01  3.319248e-01
</event>
<event>
    12  9999  1.000000e+00  1.810202e+02  7.878748e-03  1.070304e-01
       21    -1     0     0   101   102  0.0000000000e+00  0.0000000000e+00  7.1414727017e+01  7.1414727017e+01  0.0000000000e+00 0. 9.
       21    -1     0     0   102   103  0.0000000000e+00  0.0000000000e+00 -4.5934847341e+02  4.5934847341e+02  0.0000000000e+00 0. 9.
        6     2     1     2   101     0 -5.8135737494e+01  8.0852365057e+00 -1.8529627339e+02  2.5911382748e+02  1.7134798404e+02  3.747786e-13 9.
       -6     2     1     2     0   103  5.8135737494e+01 -8.0852365057e+00 -2.0263747301e+02  2.7164937295e+02  1.7113240878e+02  4.847699e-13 9.
       24     2     3     0     0     0 -3.6238796511e+01 -5.1049649920e+01 -5.6280541501e+01  1.1543185265e+02  7.8979086628e+01  2.746769e-14 9.
        5     1     3     0   101     0 -2.1896940983e+01  5.9134886425e+01 -1.2901573189e+02  1.4368197483e+02  4.8000000000e+00 0. 9.
      -24     2     4     0     0     0  4.0247646585e+01 -6.7496870698e+01 -8.1036514540e+01  1.3504937597e+02  7.4133100922e+01  4.491803e-14 9.
       -5     1     4     0     0   103  1.7888090909e+01  5.9411634193e+01 -1.2160095847e+02  1.3659999698e+02  4.8000000000e+00 0. 9.
       -3     1     5     0     0   104 -5.1753918672e+01 -1.7539037925e+01 -5.6358391406e+01  7.8502256217e+01  5.0000000000e-01 0. 9.
        2     1     5     0   104     0  1.5515122161e+01 -3.3510611995e+01  7.7849905080e-02  3.6929596431e+01  3.3000000000e-01 0. 9.
        3     1     7     0   105     0  1.4925833669e+01 -1.2912158115e+01 -7.1416039443e+01  7.4094568138e+01  5.0000000000e-01 0. 9.
       -4     1     7     0     0   105  2.5321812916e+01 -5.4584712583e+01 -9.6204750972e+00  6.0954807835e+01  1.5000000000e+00 0. 9.
#pdf   21   21  1.098688e-02  7.066900e-02  1.809183e+02  7.541172e+00  1.288771e+00
</event>
<event>
    12  9999  1.000000e+00  1.813660e+02  7.878919e-03  1.070053e-01
       21    -1     0     0   101   102  0.0000000000e+00  0.0000000000e+00  1.3631184952e+02  1.3631184952e+02  0.0000000000e+00 0. 9.
       21    -1     0     0   103   101  0.0000000000e+00  0.0000000000e+00 -2.4156465728e+02  2.4156465728e+02  0.0000000000e+00 0. 9.
        6     2     1     2   103     0 -3.6119079373e+01 -2.2522216516e+01 -5.6246685649e+01  1.8634601045e+02  1.7247987660e+02  1.433412e-13 9.
       -6     2     1     2     0   102  3.6119079373e+01  2.2522216516e+01 -4.9006122114e+01  1.9153049635e+02  1.8019570721e+02  1.539345e-13 9.
       24     2     3     0     0     0 -4.8829186304e+01 -4.0728944771e+01  2.2034591532e+01  1.0483509014e+02  8.0384927216e+01  4.270623e-14 9.
        5     1     3     0   103     0  1.2710106932e+01  1.8206728255e+01 -7.8281277182e+01  8.1510920306e+01  4.8000000000e+00 0. 9.
      -24     2     4     0     0     0  7.1404297603e+01  2.0750741551e+01  2.2047270087e+01  1.1203326814e+02  8.0846793762e+01  4.334182e-14 9.
       -5     1     4     0     0   102 -3.5285218230e+01  1.7714749656e+00 -7.1053392201e+01  7.9497228206e+01  4.8000000000e+00 0. 9.
       -1     1     5     0     0   104  9.7629554533e-01 -2.8286678814e+01  4.1243200460e+01  5.0021993518e+01  3.3000000000e-01 0. 9.
        2     1     5     0   104     0 -4.9805481850e+01 -1.2442265957e+01 -1.9208608928e+01  5.4813096623e+01  3.3000000000e-01 0. 9.
       15     1     7     0     0     0  7.3373412360e+01  1.7515045219e+01 -1.3183959146e+01  7.6599009905e+01  1.7768200000e+00  1.537990e-01 9.
      -16     1     7     0     0     0 -1.9691147569e+00  3.2356963316e+00  3.5231229233e+01  3.5434258239e+01  0.0000000000e+00 0. 9.
#pdf   21   21  2.097105e-02  3.716379e-02  1.776546e+02  4.436222e+00  2.604754e+00
</event>
<event>
    12  9999  1.000000e+00  1.890926e+02  7.882676e-03  1.064597e-01
       21    -1     0     0   101   102  0.0000000000e+00  0.0000000000e+00  1.8782708927e+03  1.8782708927e+03  0.0000000000e+00 0. 9.
       21    -1     0     0   102   103  0.0000000000e+00  0.0000000000e+00 -2.5149210235e+01  2.5149210235e+01  0.0000000000e+00 0. 9.
        6     2     1     2   101     0 -1.7685456832e+01  3.7931623014e+01  1.3446006517e+03  1.3561813044e+03  1.7182908453e+02  1.187982e-13 9.
       -6     2     1     2     0   103  1.7685456832e+01 -3.7931623014e+01  5.0852103074e+02  5.4723879857e+02  1.9780060805e+02  8.595645e-14 9.
       24     2     3     0     0     0 -2.8188931972e+01  6.4653640960e+01  5.1788964703e+02  5.2895792794e+02  8.1314782479e+01  1.941861e-14 9.
        5     1     3     0   101     0  1.0503475141e+01 -2.6722017947e+01  8.2671100469e+02  8.2722337643e+02  4.8000000000e+00 0. 9.
      -24     2     4     0     0     0  5.2286311202e+00 -7.4358229879e+01  1.4184284155e+02  1.7851396265e+02  7.8685184296e+01  8.888976e-15 9.
       -5     1     4     0     0   103  1.2456825712e+01  3.6426606865e+01  3.6667818919e+02  3.6872483592e+02  4.8000000000e+00 0. 9.
      -11     1     5     0     0     0  1.1191764126e+01  5.4932199461e+01  4.0776064294e+02  4.1159633630e+02  5.1100000000e-04 0. 9.
       12     1     5     0     0     0 -3.9380696099e+01  9.7214414998e+00  1.1012900409e+02  1.1736159164e+02  0.0000000000e+00 0. 9.
        3     1     7     0   104     0  4.0961994712e+01 -5.2043365445e+01  8.6464971811e+01  1.0891665735e+02  5.0000000000e-01 0. 9.
       -4     1     7     0     0   104 -3.5733363592e+01 -2.2314864433e+01  5.5377869741e+01  6.9597305303e+01  1.5000000000e+00 0. 9.
#pdf   21   21  2.889648e-01  3.869109e-03  1.768525e+02  1.165558e-01  1.595978e+01
</event>
<event>
    12  9999  1.000000e+00  1.831818e+02  7.879816e-03  1.068745e-01
       21    -1     0     0   101   102  0.0000000000e+00  0.0000000000e+00  1.0156243919e+02  1.0156243919e+02  0.0000000000e+00 0. 9.
       21    -1     0     0   102   103  0.0000000000e+00  0.0000000000e+00 -3.3336337224e+02  3.3336337224e+02  0.0000000000e+00 0. 9.
        6     2     1     2   101     0 -2.1352295996e+01  6.2740626140e+01 -9.5435230900e+01  2.0663573717e+02  1.7087462616e+02  6.127446e-14 9.
       -6     2     1     2     0   103  2.1352295996e+01 -6.2740626140e+01 -1.3636570215e+02  2.2829007426e+02  1.7067057910e+02  1.196382e-13 9.
       24     2     3     0     0     0 -6.8464281259e+01  4.7988778092e+00 -7.3292699034e+01  1.2859653501e+02  8.0342156117e+01  3.741467e-14 9.
        5     1     3     0   101     0  4.7111985263e+01  5.7941748331e+01 -2.2142531866e+01  7.8039202152e+01  4.8000000000e+00 0. 9.
      -24     2     4     0     0     0  6.8074511383e+01 -3.5136573950e+01 -5.1915808985e+01  1.2779244462e+02  8.8130243108e+01  1.736043e-13 9.
       -5     1     4     0     0   103 -4.6722215387e+01 -2.7604052190e+01 -8.4449893170e+01  1.0049762965e+02  4.8000000000e+00 0. 9.
       -1     1     5     0     0   104 -4.1227941434e+00  2.6965434880e+01 -4.9470336063e+01  5.6493850639e+01  3.3000000000e-01 0. 9.
        2     1     5     0   104     0 -6.4341487115e+01 -2.2166557071e+01 -2.3822362971e+01  7.2102684375e+01  3.3000000000e-01 0. 9.
       11     1     7     0     0     0  8.4887711766e+00 -4.0427251341e+01  9.1484089521e+00  4.2309753883e+01  5.1100000000e-04 0. 9.
      -12     1     7     0     0     0  5.9585740206e+01  5.2906773908e+00 -6.1064217937e+01  8.5482690736e+01  0.0000000000e+00 0. 9.
#pdf   21   21  1.562499e-02  5.128667e-02  1.830867e+02  5.691389e+00  1.859187e+00
</event>
<event>
    12  9999  1.000000e+00  2.015638e+02  7.888435e-03  1.056353e-01
       21    -1     0     0   101   102  0.0000000000e+00  0.0000000000e+00  4.2837597590e+01  4.2837597590e+01  0.0000000000e+00 0. 9.
       21    -1     0     0   102   103  0.0000000000e+00  0.0000000000e+00 -1.5562876707e+03  1.5562876707e+03  0.0000000000e+00 0. 9.
        6     2     1     2   101     0 -3.1389452346e+01 -9.9424468433e+01 -2.5317919338e+02  3.2256733496e+02  1.7052700366e+02  3.208625e-13 9.
       -6     2     1     2     0   103  3.1389452346e+01  9.9424468433e+01 -1.2602708797e+03  1.2765579333e+03  1.7449052762e+02  1.616358e-13 9.
       24     2     3     0     0     0  2.6911178953e+01 -4.5471999480e+01 -2.1794910882e+02  2.3553842382e+02  7.2004310769e+01  5.346713e-14 9.
        5     1     3     0   101     0 -5.8300631299e+01 -5.3952468953e+01 -3.5230084566e+01  8.7028911142e+01  4.8000000000e+00 0. 9.
      -24     2     4     0     0     0  4.6886582259e+01  1.1391674729e+02 -6.7402314905e+02  6.8990673466e+02  8.0552592544e+01  2.970686e-14 9.
       -5     1     4     0     0   103 -1.5497129913e+01 -1.4492278853e+01 -5.8624773065e+02  5.8665119864e+02  4.8000000000e+00 0. 9.
      -15     1     5     0     0     0  1.2760337203e+01 -6.2990227985e+01 -1.8296532158e+02  1.9393313543e+02  1.7768200000e+00  4.042475e-02 9.
       16     1     5     0     0     0  1.4150841751e+01  1.7518228505e+01 -3.4983787240e+01  4.1605288388e+01  0.0000000000e+00 0. 9.
        1     1     7     0   104     0  2.4749557905e+01 -5.8080219044e+00 -1.1928651548e+02  1.2196579607e+02  3.3000000000e-01 0. 9.
       -2     1     7     0     0   104  2.2137024354e+01  1.1972476919e+02 -5.5473663356e+02  5.6794093859e+02  3.3000000000e-01 0. 9.
#pdf   21   21  6.590400e-03  2.394289e-01  1.998749e+02  1.107290e+01  1.824749e-01
</event>
<event>
    12  9999  1.000000e+00  2.180719e+02  7.895544e-03  1.046368e-01
       21    -1     0     0   101   102  0.0000000000e+00  0.0000000000e+00  1.0662378958e+03  1.0662378958e+03  0.0000000000e+00 0. 9.
       21    -1     0     0   103   101  0.0000000000e+00  0.0000000000e+00 -1.3544516784e+02  1.3544516784e+02  0.0000000000e+00 0. 9.
        6     2     1     2   103     0 -5.4423820953e+01  1.2200257958e+02 -2.5752333511e+01  2.2088232060e+02  1.7400929619e+02  1.124973e-13 9.
       -6     2     1     2     0   102  5.4423820953e+01 -1.2200257958e+02  9.5654506149e+02  9.8080074305e+02  1.7071924673e+02  8.785071e-14 9.
       24     2     3     0     0     0 -1.0398390339e+01  2.7960553472e+00 -4.3836190645e+01  9.2435834275e+01  8.0664908111e+01  1.834595e-13 9.
        5     1     3     0   103     0 -4.4025430614e+01  1.1920652424e+02  1.8083857134e+01  1.2844648633e+02  4.8000000000e+00 0. 9.
      -24     2     4     0     0     0  4.7065441588e+01  5.8227152679e-01  3.8059157816e+02  3.9188084491e+02  8.0654525051e+01  1.582757e-13 9.
       -5     1     4     0     0   102  7.3583793648e+00 -1.2258485111e+02  5.7595348332e+02  5.8891989814e+02  4.8000000000e+00 0. 9.
      -15     1     5     0     0     0  3.2610305089e+01 -1.3446299492e+01 -2.1187623583e+01  4.1186253173e+01  1.7768200000e+00  7.515129e-02 9.
       16     1     5     0     0     0 -4.3008695428e+01  1.6242354839e+01 -2.2648567062e+01  5.1249581102e+01  0.0000000000e+00 0. 9.
        1     1     7     0   104     0  5.0627300577e+01 -4.9682355835e+00  1.0983733055e+02  1.2104608631e+02  3.3000000000e-01 0. 9.
       -2     1     7     0     0   104 -3.5618589882e+00  5.5505071103e+00  2.7075424762e+02  2.7083475861e+02  3.3000000000e-01 0. 9.
#pdf   21   21  1.640366e-01  2.083772e-02  2.167756e+02  3.792404e-01  4.443171e+00
</event>
<event>
    12  9999  1.000000e+00  1.878499e+02  7.882082e-03  1.065456e-01
       21    -1     0     0   101   102  0.0000000000e+00  0.0000000000e+00  7.9270438594e+02  7.9270438594e+02  0.0000000000e+00 0. 9.
       21    -1     0     0   103   101  0.0000000000e+00  0.0000000000e+00 -4.5494376086e+01  4.5494376086e+01  0.0000000000e+00 0. 9.
        6     2     1     2   103     0  2.0818608097e+01  7.5840428061e+01  3.1125068366e+02  3.6331001002e+02  1.7009406317e+02  1.713753e-13 9.
       -6     2     1     2     0   102 -2.0818608097e+01 -7.5840428061e+01  4.3595932619e+02  4.7488875201e+02  1.7109531765e+02  6.253003e-14 9.
       24     2     3     0     0     0  1.1329989897e+01  9.5792403132e+00  2.7570164548e+02  2.8736691953e+02  7.9675708974e+01  1.941997e-13 9.
        5     1     3     0   103     0  9.4886181995e+00  6.6261187748e+01  3.5549038180e+01  7.5943090486e+01  4.8000000000e+00 0. 9.
      -24     2     4     0     0     0 -4.1034891673e+01 -5.5985630026e+01  4.3298666451e+02  4.4599605667e+02  8.1343578788e+01  5.645668e-14 9.
       -5     1     4     0     0   102  2.0216283576e+01 -1.9854798035e+01  2.9726616711e+00  2.8892695340e+01  4.8000000000e+00 0. 9.
       -1     1     5     0     0   104 -3.1101995512e+01  5.3519614791e+00  6.3356806512e+01  7.0782564576e+01  3.3000000000e-01 0. 9.
        2     1     5     0   104     0  4.2431985410e+01  4.2272788341e+00  2.1234483897e+02  2.1658435495e+02  3.3000000000e-01 0. 9.
        3     1     7     0   105     0 -2.9600250754e+01  1.1688853461e+01  7.4803327130e+01  8.1293246274e+01  5.0000000000e-01 0. 9.
       -4     1     7     0     0   105 -1.1434640918e+01 -6.7674483488e+01  3.5818333738e+02  3.6470281039e+02  1.5000000000e+00 0. 9.
#pdf   21   21  1.219545e-01  6.999135e-03  1.873958e+02  6.208808e-01  1.058185e+01
</event>
<event>
    12  9999  1.000000e+00  1.799529e+02  7.878215e-03  1.071083e-01
       21    -1     0     0   101   102  0.0000000000e+00  0.0000000000e+00  1.3320991638e+02  1.3320991638e+02  0.0000000000e+00 0. 9.
       21    -1     0     0   103   101  0.0000000000e+00  0.0000000000e+00 -5.7089132293e+02  5.7089132293e+02  0.0000000000e+00 0. 9.
        6     2     1     2   103     0  9.7224049262e+00 -5.7784569234e+01 -4.8516633855e+02  5.1717308071e+02  1.6925731224e+02  3.533191e-13 9.
       -6     2     1     2     0   102 -9.7224049262e+00  5.7784569234e+01  4.7484932002e+01  1.8692815860e+02  1.7103723604e+02  2.770658e-13 9.
       24     2     3     0     0     0 -5.6544447028e+00  2.4915859319e+01 -3.3063105356e+02  3.4116170979e+02  8.0135172390e+01  8.896747e-14 9.
        5     1     3     0   103     0  1.5376849629e+01 -8.2700428553e+01 -1.5453528499e+02  1.7601137092e+02  4.8000000000e+00 0. 9.
      -24     2     4     0     0     0 -2.9322524000e+01  9.9870337405e+01  1.9721259992e+01  1.3262127107e+02  7.9784577060e+01  4.732412e-14 9.
       -5     1     4     0     0   102  1.9600119074e+01 -4.2085768171e+01  2.7763672010e+01  5.4306887535e+01  4.8000000000e+00 0. 9.
       -1     1     5     0     0   104 -6.4995581774e+00 -2.8579251623e+01 -1.4706722524e+02  1.4995964630e+02  3.3000000000e-01 0. 9.
        2     1     5     0   104     0  8.4511347463e-01  5.3495110942e+01 -1.8356382833e+02  1.9120206349e+02  3.3000000000e-01 0. 9.
        1     1     7     0   105     0 -1.7378924642e+01  6.7288954371e+01  5.0742885806e+01  8.6051029988e+01  3.3000000000e-01 0. 9.
       -4     1     7     0     0   105 -1.1943599358e+01  3.2581383035e+01 -3.1021625814e+01  4.6570241080e+01  1.5000000000e+00 0. 9.
#pdf   21   21  2.049383e-02  8.782943e-02  1.791134e+02  4.525443e+00  9.829542e-01
</event>
<event>
    12  9999  1.000000e+00  1.738292e+02  7.875101e-03  1.075663e-01
       21    -1     0     0   101   102  0.0000000000e+00  0.0000000000e+00  9.3460248715e+01  9.3460248715e+01  0.0000000000e+00 0. 9.
       21    -1     0     0   102   103  0.0000000000e+00  0.0000000000e+00 -3.9995472632e+02  3.9995472632e+02  0.0000000000e+00 0. 9.
        6     2     1     2   101     0 -2.2781313521e+01 -1.7696962500e+01 -4.5405847292e+01  1.7987488988e+02  1.7164240244e+02  5.980562e-14 9.
       -6     2     1     2     0   103  2.2781313521e+01  1.7696962500e+01 -2.6108863031e+02  3.1354008515e+02  1.7119562316e+02  1.353968e-13 9.
       24     2     3     0     0     0 -6.4575228452e+01 -2.6539882046e+01 -6.8027560557e+01  1.3129803879e+02  8.7960789705e+01  1.680281e-14 9.
        5     1     3     0   101     0  4.1793914931e+01  8.8429195458e+00  2.2621713265e+01  4.8576851096e+01  4.8000000000e+00 0. 9.
      -24     2     4     0     0     0 -2.7861344952e+01 -3.4689394158e+01 -1.9301507918e+02  2.1370994148e+02  8.0234093053e+01  4.808914e-14 9.
       -5     1     4     0     0   103  5.0642658473e+01  5.2386356658e+01 -6.8073551136e+01  9.9830143672e+01  4.8000000000e+00 0. 9.
      -13     1     5     0     0     0 -6.2405638651e+01  1.6579040165e-01 -4.7557579345e+00  6.2586896548e+01  1.0566000000e-01  3.398674e+05 9.
       14     1     5     0     0     0 -2.1695898008e+00 -2.6705672447e+01 -6.3271802622e+01  6.8711142239e+01  0.0000000000e+00 0. 9.
        1     1     7     0   104     0 -1.0540746883e+01 -1.7306621242e-01  5.2056826183e+00  1.1762029089e+01  3.3000000000e-01 0. 9.
       -2     1     7     0     0   104 -1.7320598069e+01 -3.4516327946e+01 -1.9822076180e+02  2.0194791239e+02  3.3000000000e-01 0. 9.
#pdf   21   21  1.437850e-02  6.153150e-02  1.736091e+02  6.092012e+00  1.521600e+00
</event>
<event>
    12  9999  1.000000e+00  2.422315e+02  7.905053e-03  1.033335e-01
       21    -1     0     0   101   102  0.0000000000e+00  0.0000000000e+00  9.2935748484e+01  9.2935748484e+01  0.0000000000e+00 0. 9.
       21    -1     0     0   103   101  0.0000000000e+00  0.0000000000e+00 -9.8950869231e+02  9.8950869231e+02  0.0000000000e+00 0. 9.
        6     2     1     2   103     0  1.4870566814e+02 -8.5913826198e+01 -7.7401151718e+02  8.1105953068e+02  1.7096541265e+02  6.052076e-16 9.
       -6     2     1     2     0   102 -1.4870566814e+02  8.5913826198e+01 -1.2256142665e+02  2.7138491011e+02  1.7068656908e+02  1.499950e-13 9.
       24     2     3     0     0     0  1.0244429088e+02 -7.2601784072e+01 -7.3205675166e+02  7.4702385437e+02  7.9822926263e+01  2.613078e-13 9.
        5     1     3     0   103     0  4.6261377263e+01 -1.3312042126e+01 -4.1954765511e+01  6.4035676313e+01  4.8000000000e+00 0. 9.
      -24     2     4     0     0     0 -1.5768256823e+02  9.9742858585e+01 -6.8815587072e+01  2.1496255511e+02  8.1614244543e+01  5.911910e-14 9.
       -5     1     4     0     0   102  8.9769000873e+00 -1.3829032387e+01 -5.3745839578e+01  5.6422355002e+01  4.8000000000e+00 0. 9.
      -13     1     5     0     0     0  2.9519724281e+01  8.9052195069e+00 -7.7772458831e+01  8.3661721072e+01  1.0566000000e-01  7.600850e+05 9.
       14     1     5     0     0     0  7.2924566600e+01 -8.1507003578e+01 -6.5428429283e+02  6.6336213330e+02  0.0000000000e+00 0. 9.
        3     1     7     0   104     0 -1.0892414191e+02  6.2302160625e+01 -8.4769075421e+01  1.5143339809e+02  5.0000000000e-01 0. 9.
       -4     1     7     0     0   104 -4.8758426319e+01  3.7440697960e+01  1.5953488349e+01  6.3529157017e+01  1.5000000000e+00 0. 9.
#pdf   21   21  1.429781e-02  1.522321e-01  2.421332e+02  6.110795e+00  4.237750e-01
</event>
<event>
    12  9999  1.000000e+00  1.813530e+02  7.878913e-03  1.070063e-01
       21    -1     0     0   101   102  0.0000000000e+00  0.0000000000e+00  1.6785422832e+03  1.6785422832e+03  0.0000000000e+00 0. 9.
       21    -1     0     0   103   101  0.0000000000e+00  0.0000000000e+00 -2.0992107429e+01  2.0992107429e+01  0.0000000000e+00 0. 9.
        6     2     1     2   103     0  1.8242859999e+01  5.8359148557e+01  6.0744830450e+02  6.3380712269e+02  1.7023346903e+02  4.938097e-13 9.
       -6     2     1     2     0   102 -1.8242859999e+01 -5.8359148557e+01  1.0501018712e+03  1.0657272679e+03  1.7123690434e+02  9.263642e-14 9.
       24     2     3     0     0     0  5.9084701706e+01  7.7216109300e+01  5.2374089734e+02  5.3865665755e+02  7.9957098964e+01  6.639994e-14 9.
        5     1     3     0   103     0 -4.0841841707e+01 -1.8856960743e+01  8.3707407163e+01  9.5150465140e+01  4.8000000000e+00 0. 9.
      -24     2     4     0     0     0 -7.5663182342e+01 -3.5447233539e+01  7.8688288384e+02  7.9530292618e+02  7.9628185855e+01  5.965781e-14 9.
       -5     1     4     0     0   102  5.7420322343e+01 -2.2911915018e+01  2.6321898740e+02  2.7042434173e+02  4.8000000000e+00 0. 9.
       -5     1     5     0     0   104  3.5807143553e+00  3.0199083445e+01  3.3446033489e+02  3.3587432437e+02  4.8000000000e+00 0. 9.
        4     1     5     0   104     0  5.5503987350e+01  4.7017025854e+01  1.8928056244e+02  2.0278233318e+02  1.5000000000e+00 0. 9.
       11     1     7     0     0     0  1.0390884857e+01  1.0652455223e+01  1.8044220696e+02  1.8105478547e+02  5.1100000000e-04 0. 9.
      -12     1     7     0     0     0 -8.6054067200e+01 -4.6099688762e+01  6.0644067689e+02  6.1424814071e+02  0.0000000000e+00 0. 9.
#pdf   21   21  2.582373e-01  3.229555e-03  1.808812e+02  1.557778e-01  1.801831e+01
</event>
<event>
    12  9999  1.000000e+00  1.711152e+02  7.873686e-03  1.077757e-01
       21    -1     0     0   101   102  0.0000000000e+00  0.0000000000e+00  9.2518619056e+01  9.2518619056e+01  0.0000000000e+00 0. 9.
       21    -1     0     0   102   103  0.0000000000e+00  0.0000000000e+00 -1.0396091702e+03  1.0396091702e+03  0.0000000000e+00 0. 9.
        6     2     1     2   101     0 -4.5602816976e+00 -1.1277868115e+01 -1.5395448338e+00  1.7123906006e+02  1.7079947017e+02  3.293845e-13 9.
       -6     2     1     2     0   103  4.5602816976e+00  1.1277868115e+01 -9.4555100628e+02  9.6088872917e+02  1.7056511335e+02  2.332743e-13 9.
       24     2     3     0     0     0 -6.6258594660e+01 -2.6054915483e+01 -1.7984398377e+00  1.0761398656e+02  8.0675124601e+01  8.386131e-14 9.
        5     1     3     0   101     0  6.1698312962e+01  1.4777047368e+01  2.5889500391e-01  6.3625073500e+01  4.8000000000e+00 0. 9.
      -24     2     4     0     0     0  2.8738500374e+01 -1.2833325629e+01 -2.4563641510e+02  2.6012528059e+02  7.9607270569e+01  2.474928e-14 9.
       -5     1     4     0     0   103 -2.4178218677e+01  2.4111193744e+01 -6.9991459118e+02  7.0076344858e+02  4.8000000000e+00 0. 9.
       -1     1     5     0     0   104 -2.7609018520e+01  1.6128521959e+01 -2.9983652000e+01  4.3835093378e+01  3.3000000000e-01 0. 9.
        2     1     5     0   104     0 -3.8649576140e+01 -4.2183437442e+01  2.8185212163e+01  6.3778893177e+01  3.3000000000e-01 0. 9.
        1     1     7     0   105     0 -7.7422358645e+00  1.1475662564e+00 -1.9956366689e+02  1.9971736321e+02  3.3000000000e-01 0. 9.
       -2     1     7     0     0   105  3.6480736239e+01 -1.3980891885e+01 -4.6072748207e+01  6.0407917377e+01  3.3000000000e-01 0. 9.
#pdf   21   21  1.423363e-02  1.599399e-01  1.709984e+02  6.141921e+00  4.100111e-01
</event>
<event>
    12  9999  1.000000e+00  1.929812e+02  7.884511e-03  1.061956e-01
       21    -1     0     0   101   102  0.0000000000e+00  0.0000000000e+00  1.1424222553e+02  1.1424222553e+02  0.0000000000e+00 0. 9.
       21    -1     0     0   103   101  0.0000000000e+00  0.0000000000e+00 -7.4963645456e+02  7.4963645456e+02  0.0000000000e+00 0. 9.
        6     2     1     2   103     0  6.4000038619e+01  6.5134172340e+01 -6.4309948890e+02  6.7171045489e+02  1.7111258647e+02  4.551522e-13 9.
       -6     2     1     2     0   102 -6.4000038619e+01 -6.5134172340e+01  7.7052598654e+00  1.9216822520e+02  1.6891059883e+02  6.381657e-14 9.
       24     2     3     0     0     0 -1.8975300717e+00  7.1819933345e+01 -5.2520752523e+02  5.3640064721e+02  8.1981743818e+01  6.657646e-15 9.
        5     1     3     0   103     0  6.5897568691e+01 -6.6857610055e+00 -1.1789196367e+02  1.3530980769e+02  4.8000000000e+00 0. 9.
      -24     2     4     0     0     0 -3.1787839558e+01 -1.0331981800e+02  2.7976623887e+01  1.3804117557e+02  8.1161709773e+01  1.399634e-13 9.
       -5     1     4     0     0   102 -3.2212199061e+01  3.8185645656e+01 -2.0271364022e+01  5.4127049632e+01  4.8000000000e+00 0. 9.
       -3     1     5     0     0   104  3.9901367716e+01  3.7714495444e+01 -2.5162910469e+02  2.5754991485e+02  5.0000000000e-01 0. 9.
        4     1     5     0   104     0 -4.1798897787e+01  3.4105437902e+01 -2.7357842054e+02  2.7885073236e+02  1.5000000000e+00 0. 9.
        3     1     7     0   105     0 -4.9749937992e+01 -3.5422914845e+01 -3.2888110335e+00  6.1162942247e+01  5.0000000000e-01 0. 9.
       -2     1     7     0     0   105  1.7962098433e+01 -6.7896903152e+01  3.1265434920e+01  7.6878233320e+01  3.3000000000e-01 0. 9.
#pdf   21   21  1.757573e-02  1.153287e-01  1.920137e+02  5.157155e+00  6.719148e-01
</event>
<event>
    12  9999  1.000000e+00  1.993229e+02  7.887427e-03  1.057787e-01
       21    -1     0     0   101   102  0.0000000000e+00  0.0000000000e+00  3.6236259406e+01  3.6236259406e+01  0.0000000000e+00 0. 9.
       21    -1     0     0   102   103  0.0000000000e+00  0.0000000000e+00 -1.4767875658e+03  1.4767875658e+03  0.0000000000e+00 0. 9.
        6     2     1     2   101     0 -2.6164872648e+01 -9.6268283461e+01 -3.3883032322e+02  3.9358130030e+02  1.7363199317e+02  2.566141e-13 9.
       -6     2     1     2     0   103  2.6164872648e+01  9.6268283461e+01 -1.1017209832e+03  1.1194425249e+03  1.7149419478e+02  7.605613e-15 9.
       24     2     3     0     0     0  4.1787855306e+01 -7.2159763030e+01 -1.3712639273e+02  1.7932372267e+02  8.0000585495e+01  3.043455e-13 9.
        5     1     3     0   101     0 -6.7952727954e+01 -2.4108520432e+01 -2.0170393049e+02  2.1425757762e+02  4.8000000000e+00 0. 9.
      -24     2     4     0     0     0  2.4938788129e+01  8.5765916424e+01 -1.1012636626e+03  1.1078213314e+03  8.0676589648e+01  1.451705e-13 9.
       -5     1     4     0     0   103  1.2260845192e+00  1.0502367037e+01 -4.5732055955e-01  1.1621193515e+01  4.8000000000e+00 0. 9.
       -1     1     5     0     0   104  3.5023765773e+01 -1.5389054585e+01 -1.0917445405e+02  1.1568343653e+02  3.3000000000e-01 0. 9.
        2     1     5     0   104     0  6.7640895334e+00 -5.6770708445e+01 -2.7951938672e+01  6.3640286141e+01  3.3000000000e-01 0. 9.
       13     1     7     0     0     0  1.6886000277e+01  3.9745941402e+01 -1.7043169274e+02  1.7581766100e+02  1.0566000000e-01  1.605864e+06 9.
      -14     1     7     0     0     0  8.0527878513e+00  4.6019975023e+01 -9.3083196987e+02  9.3200367039e+02  0.0000000000e+00 0. 9.
#pdf   21   21  5.574809e-03  2.271981e-01  1.983997e+02  1.247589e+01  2.054165e-01
</event>
<event>
    12  9999  1.000000e+00  2.499402e+02  7.907893e-03  1.029513e-01
       21    -1     0     0   101   102  0.0000000000e+00  0.0000000000e+00  9.0465878723e+02  9.0465878723e+02  0.0000000000e+00 0. 9.
       21    -1     0     0   103   101  0.0000000000e+00  0.0000000000e+00 -6.9112177985e+01  6.9112177985e+01  0.0000000000e+00 0. 9.
        6     2     1     2   103     0 -1.3939669719e+02  1.1697140761e+02  4.3285882459e+02  5.0013063930e+02  1.7219217448e+02  2.181389e-13 9.
       -6     2     1     2     0   102  1.3939669719e+02 -1.1697140761e+02  4.0268778466e+02  4.7364032592e+02  1.7048154458e+02  1.755886e-13 9.
       24     2     3     0     0     0 -5.0443747271e+01  8.2376174979e+01  1.3414401308e+02  1.8650182041e+02  8.6359173971e+01  5.993891e-15 9.
        5     1     3     0   103     0 -8.8952949916e+01  3.4595232630e+01  2.9871481151e+02  3.1362881889e+02  4.8000000000e+00 0. 9.
      -24     2     4     0     0     0  1.0918368964e+02 -1.4739704604e+02  2.8748643383e+02  3.5062432480e+02  8.1498467735e+01  1.679358e-14 9.
       -5     1     4     0     0   102  3.0213007547e+01  3.0425638427e+01  1.1520135083e+02  1.2301600112e+02  4.8000000000e+00 0. 9.
       -1     1     5     0     0   104 -3.1611446688e+01  9.1527692419e+01  1.3428921302e+02  1.6556057404e+02  3.3000000000e-01 0. 9.
        2     1     5     0   104     0 -1.8832300583e+01 -9.1515174401e+00 -1.4519994283e-01  2.0941246375e+01  3.3000000000e-01 0. 9.
        3     1     7     0   105     0  8.7844092514e+01 -5.0162822157e+01  1.4575906048e+02  1.7742279173e+02  5.0000000000e-01 0. 9.
       -4     1     7     0     0   105  2.1339597125e+01 -9.7234223878e+01  1.4172737335e+02  1.7320153307e+02  1.5000000000e+00 0. 9.
#pdf   21   21  1.391783e-01  1.063264e-02  2.493546e+02  4.887344e-01  7.751842e+00
</event>
<event>
    12  9999  1.000000e+00  1.716432e+02  7.873963e-03  1.077347e-01
       21    -1     0     0   101   102  0.0000000000e+00  0.0000000000e+00  6.8031385050e+02  6.8031385050e+02  0.0000000000e+00 0. 9.
       21    -1     0     0   102   103  0.0000000000e+00  0.0000000000e+00 -4.3499350649e+01  4.3499350649e+01  0.0000000000e+00 0. 9.
        6     2     1     2   101     0  1.6831047316e+00 -1.1233612975e+01  3.4345734646e+02  3.8418132173e+02  1.7176528238e+02  8.282149e-14 9.
       -6     2     1     2     0   103 -1.6831047316e+00  1.1233612975e+01  2.9335715340e+02  3.3963187942e+02  1.7076992466e+02  3.663488e-14 9.
       24     2     3     0     0     0  4.4238701482e+01 -2.4443488269e+01  3.1867604018e+02  3.3296967500e+02  8.2218240418e+01  1.427805e-13 9.
        5     1     3     0   101     0 -4.2555596751e+01  1.3209875294e+01  2.4781306275e+01  5.1211646730e+01  4.8000000000e+00 0. 9.
      -24     2     4     0     0     0 -5.1890948710e+01  2.7547604117e+01  2.5591655814e+02  2.7473340427e+02  8.0830796361e+01  1.292659e-13 9.
       -5     1     4     0     0   103  5.0207843978e+01 -1.6313991142e+01  3.7440595259e+01  6.4898475154e+01  4.8000000000e+00 0. 9.
      -13     1     5     0     0     0 -1.1776239773e+00 -3.0836840168e+00 -4.6877273607e+00  5.7342704149e+00  1.0566000000e-01  1.201715e+05 9.
       14     1     5     0     0     0  4.5416325460e+01 -2.1359804252e+01  3.2336376754e+02  3.2723540459e+02  0.0000000000e+00 0. 9.
       11     1     7     0     0     0 -6.2313533705e+00  2.9433003906e+01  2.4361294806e+01  3.8711809162e+01  5.1100000000e-04 0. 9.
      -12     1     7     0     0     0 -4.5659595339e+01 -1.8853997884e+00  2.3155526333e+02  2.3602159510e+02  0.0000000000e+00 0. 9.
#pdf   21   21  1.046637e-01  6.692208e-03  1.711473e+02  7.806279e-01  1.089903e+01
</event>
<event>
    12  9999  1.000000e+00  1.729330e+02  7.874636e-03  1.076350e-01
       21    -1     0     0   101   102  0.0000000000e+00  0.0000000000e+00  3.4046845811e+02  3.4046845811e+02  0.0000000000e+00 0. 9.
       21    -1     0     0   102   103  0.0000000000e+00  0.0000000000e+00 -1.0480883585e+02  1.0480883585e+02  0.0000000000e+00 0. 9.
        6     2     1     2   101     0 -1.3482418862e+01  1.2470490714e+01  2.8893514721e+01  1.7644410847e+02  1.7309072611e+02  8.271687e-14 9.
       -6     2     1     2     0   103  1.3482418862e+01 -1.2470490714e+01  2.0676610754e+02  2.6883318549e+02  1.7082672401e+02  4.122307e-13 9.
       24     2     3     0     0     0  4.6826336346e+01  7.9171628743e+00  5.5708419192e+01  1.1011193038e+02  8.2254616882e+01  6.661913e-15 9.
        5     1     3     0   101     0 -6.0308755208e+01  4.5533278394e+00 -2.6814904471e+01  6.6332178096e+01  4.8000000000e+00 0. 9.
      -24     2     4     0     0     0 -5.0941459891e+01 -2.2613175923e+00  8.8516104229e+01  1.3370078133e+02  8.6259215905e+01  2.095960e-13 9.
       -5     1     4     0     0   103  6.4423878753e+01 -1.0209173121e+01  1.1825000331e+02  1.3513240415e+02  4.8000000000e+00 0. 9.
      -11     1     5     0     0     0 -1.0353864192e+01 -2.6335601550e+01  1.7825048400e+01  3.3443964530e+01  5.1100000000e-04 0. 9.
       12     1     5     0     0     0  5.7180200538e+01  3.4252764425e+01  3.7883370792e+01  7.6667965845e+01  0.0000000000e+00 0. 9.
       11     1     7     0     0     0 -4.4426958505e+01 -8.5675709452e+00  5.2988270518e-01  4.5248631911e+01  5.1100000000e-04 0. 9.
      -12     1     7     0     0     0 -6.5145013860e+00  6.3062533529e+00  8.7986221524e+01  8.8452149424e+01  0.0000000000e+00 0. 9.
#pdf   21   21  5.237976e-02  1.612444e-02  1.718111e+02  1.823942e+00  5.546705e+00
</event>
<event>
    12  9999  1.000000e+00  3.787958e+02  7.945774e-03  9.813659e-02
       21    -1     0     0   101   102  0.0000000000e+00  0.0000000000e+00  1.2715893451e+03  1.2715893451e+03  0.0000000000e+00 0. 9.
       21    -1     0     0   102   103  0.0000000000e+00  0.0000000000e+00 -1.1335863389e+02  1.1335863389e+02  0.0000000000e+00 0. 9.
        6     2     1     2   101     0 -2.8520484787e+02  1.8082217880e+02  5.3240740754e+02  6.5345770159e+02  1.7178723636e+02  1.056753e-13 9.
       -6     2     1     2     0   103  2.8520484787e+02 -1.8082217880e+02  6.2582330367e+02  7.3149027739e+02  1.7141981479e+02  3.100100e-13 9.
       24     2     3     0     0     0 -1.1877229970e+02  1.4655347266e+02  2.3960400969e+02  3.1488568990e+02  7.8473796392e+01  2.260564e-14 9.
        5     1     3     0   101     0 -1.6643254817e+02  3.4268706143e+01  2.9280339785e+02  3.3857201170e+02  4.8000000000e+00 0. 9.
      -24     2     4     0     0     0  2.0460368313e+02 -1.8667249942e+02  5.4092378750e+02  6.1417982664e+02  8.8932707024e+01  8.178266e-14 9.
       -5     1     4     0     0   103  8.0601164739e+01  5.8503206256e+00  8.4899516178e+01  1.1731045075e+02  4.8000000000e+00 0. 9.
       -1     1     5     0     0   104 -6.9052853664e+01  4.0557499664e+01  5.8265186047e+01  9.9036095355e+01  3.3000000000e-01 0. 9.
        2     1     5     0   104     0 -4.9719446037e+01  1.0599597299e+02  1.8133882364e+02  2.1584959454e+02  3.3000000000e-01 0. 9.
       15     1     7     0     0     0  1.5813813688e+02 -1.3825623061e+02  3.1592149477e+02  3.7938371550e+02  1.7768200000e+00  1.901679e-01 9.
      -16     1     7     0     0     0  4.6465546244e+01 -4.8416268817e+01  2.2500229272e+02  2.3479611114e+02  0.0000000000e+00 0. 9.
#pdf   21   21  1.956291e-01  1.743979e-02  3.787126e+02  2.502478e-01  5.134202e+00
</event>
<event>
    12  9999  1.000000e+00  3.755620e+02  7.944989e-03  9.823126e-02
       21    -1     0     0   101   102  0.0000000000e+00  0.0000000000e+00  2.0493233820e+02  2.0493233820e+02  0.0000000000e+00 0. 9.
       21    -1     0     0   103   101  0.0000000000e+00  0.0000000000e+00 -6.8845953936e+02  6.8845953936e+02  0.0000000000e+00 0. 9.
        6     2     1     2   103     0  3.3237767693e+02  2.0843122805e+01 -2.3375149830e+02  4.4174851555e+02  1.7202509162e+02  1.852603e-13 9.
       -6     2     1     2     0   102 -3.3237767693e+02 -2.0843122805e+01 -2.4977570285e+02  4.5164336201e+02  1.7516982851e+02  2.628239e-13 9.
       24     2     3     0     0     0  8.9722602636e+01 -2.3098669316e+01 -4.1548979681e+01  1.2905503251e+02  7.9656699377e+01  6.939067e-15 9.
        5     1     3     0   103     0  2.4265507429e+02  4.3941792121e+01 -1.9220251862e+02  3.1269348304e+02  4.8000000000e+00 0. 9.
      -24     2     4     0     0     0 -1.9186052395e+02 -6.2605291444e+01 -9.3710823397e+01  2.3747418679e+02  8.2960157941e+01  8.446948e-14 9.
       -5     1     4     0     0   102 -1.4051715298e+02  4.1762168639e+01 -1.5606487946e+02  2.1416917521e+02  4.8000000000e+00 0. 9.
      -15     1     5     0     0     0  7.4473075713e+01 -2.5636515297e+01 -6.4202253366e+01  1.0162950531e+02  1.7768200000e+00  5.125321e-02 9.
       16     1     5     0     0     0  1.5249526924e+01  2.5378459804e+00  2.2653273685e+01  2.7425527201e+01  0.0000000000e+00 0. 9.
        1     1     7     0   104     0 -1.9911830342e+02 -5.3152421249e+01 -8.6257423975e+01  2.2341381053e+02  3.3000000000e-01 0. 9.
       -2     1     7     0     0   104  7.2577794763e+00 -9.4528701950e+00 -7.4533994219e+00  1.4060376268e+01  3.3000000000e-01 0. 9.
#pdf   21   21  3.152805e-02  1.059169e-01  3.748359e+02  2.964701e+00  7.055687e-01
</event>
<event>
    12  9999  1.000000e+00  2.082708e+02  7.891390e-03  1.052178e-01
        1    -1     0     0   101     0  0.0000000000e+00  0.0000000000e+00  7.0682637261e+01  7.0682637261e+01  0.0000000000e+00 0. 9.
       -1    -1     0     0     0   102  0.0000000000e+00  0.0000000000e+00 -6.6522527694e+02  6.6522527694e+02  0.0000000000e+00 0. 9.
        6     2     1     2   101     0  5.7187673768e+01  1.0595581213e+02 -1.9445361114e+02  2.8471634809e+02  1.6957042145e+02  1.197381e-13 9.
       -6     2     1     2     0   102 -5.7187673768e+01 -1.0595581213e+02 -4.0008902854e+02  4.5119156611e+02  1.7031011249e+02  2.928666e-13 9.
       24     2     3     0     0     0 -1.8276531018e+01  4.3617523903e+01 -1.5146956289e+02  1.7770430771e+02  7.9995453105e+01  4.342478e-14 9.
        5     1     3     0   101     0  7.5464204786e+01  6.2338288229e+01 -4.2984048245e+01  1.0701204038e+02  4.8000000000e+00 0. 9.
      -24     2     4     0     0     0 -1.1301646280e+01 -8.3447544224e+01 -3.7757108214e+02  3.9513581214e+02  8.0505702433e+01  2.207410e-14 9.
       -5     1     4     0     0   102 -4.5886027488e+01 -2.2508267908e+01 -2.2517946404e+01  5.6055753970e+01  4.8000000000e+00 0. 9.
       -1     1     5     0     0   103 -4.2499566168e+01 -2.5773537010e-02 -6.0439046310e+01  7.3886406108e+01  3.3000000000e-01 0. 9.
        2     1     5     0   103     0  2.4223035149e+01  4.3643297440e+01 -9.1030516582e+01  1.0381790160e+02  3.3000000000e-01 0. 9.
        1     1     7     0   104     0 -2.2139822675e+01 -4.2054725887e+01 -7.0046765441e+01  8.4648862758e+01  3.3000000000e-01 0. 9.
       -2     1     7     0     0   104  1.0838176395e+01 -4.1392818337e+01 -3.0752431670e+02  3.1048694939e+02  3.3000000000e-01 0. 9.
#pdf    1   -1  1.087425e-02  1.023424e-01  2.079692e+02  6.655231e-01  9.166411e-02
</event>
<event>
    12  9999  1.000000e+00  2.622270e+02  7.912247e-03  1.023713e-01
       21    -1     0     0   101   102  0.0000000000e+00  0.0000000000e+00  5.1207691858e+02  5.1207691858e+02  0.0000000000e+00 0. 9.
       21    -1     0     0   102   103  0.0000000000e+00  0.0000000000e+00 -3.8170859337e+02  3.8170859337e+02  0.0000000000e+00 0. 9.
        6     2     1     2   101     0  3.4925980747e+01  1.9655790728e+02  4.2492534854e+02  4.9898320193e+02  1.6902026189e+02  8.485310e-14 9.
       -6     2     1     2     0   103 -3.4925980747e+01 -1.9655790728e+02 -2.9455702333e+02  3.9480231002e+02  1.7102686618e+02  1.316923e-13 9.
       24     2     3     0     0     0 -2.9716903518e+01  8.3281048540e+01  2.7520406156e+02  3.0036333135e+02  8.1621246756e+01  1.412865e-13 9.
        5     1     3     0   101     0  6.4642884265e+01  1.1327685874e+02  1.4972128698e+02  1.9861987058e+02  4.8000000000e+00 0. 9.
      -24     2     4     0     0     0  2.1171653877e+01 -1.6913142753e+02 -2.0349479994e+02  2.8428296813e+02  1.0174966172e+02  1.184357e-13 9.
       -5     1     4     0     0   103 -5.6097634624e+01 -2.7426479755e+01 -9.1062223393e+01  1.1051934189e+02  4.8000000000e+00 0. 9.
       -1     1     5     0     0   104  8.2070108808e+00  8.1125903433e+01  1.7112315924e+02  1.8955741020e+02  3.3000000000e-01 0. 9.
        4     1     5     0   104     0 -3.7923914399e+01  2.1551451072e+00  1.0408090232e+02  1.1080592115e+02  1.5000000000e+00 0. 9.
       13     1     7     0     0     0 -4.0634280145e+01 -5.1568198776e+01 -6.4728604096e+01  9.2196676730e+01  1.0566000000e-01  9.060525e+05 9.
      -14     1     7     0     0     0  6.1805934022e+01 -1.1756322875e+02 -1.3876619584e+02  1.9208629140e+02  0.0000000000e+00 0. 9.
#pdf   21   21  7.878106e-02  5.872440e-02  2.615773e+02  1.091354e+00  1.558268e+00
</event>
<event>
    12  9999  1.000000e+00  2.140786e+02  7.893874e-03  1.048695e-01
       21    -1     0     0   101   102  0.0000000000e+00  0.0000000000e+00  6.1068646199e+02  6.1068646199e+02  0.0000000000e+00 0. 9.
       21    -1     0     0   103   101  0.0000000000e+00  0.0000000000e+00 -1.2197868291e+02  1.2197868291e+02  0.0000000000e+00 0. 9.
        6     2     1     2   103     0 -6.8843046471e+01  2.1477068213e+01  6.2141157291e-01  1.8577905620e+02  1.7120993565e+02  2.035125e-13 9.
       -6     2     1     2     0   102  6.8843046471e+01 -2.1477068213e+01  4.8808636751e+02  5.4688608870e+02  2.3591409953e+02  6.435814e-14 9.
       24     2     3     0     0     0 -3.4013000779e+00  2.3433891500e+01 -5.5195047857e+01  9.9610799452e+01  7.9467615708e+01  8.312167e-14 9.
        5     1     3     0   103     0 -6.5441746393e+01 -1.9568232872e+00  5.5816459430e+01  8.6168256752e+01  4.8000000000e+00 0. 9.
      -24     2     4     0     0     0  7.7720864347e+01  1.3579877721e+01  8.1846675771e+01  1.3901168125e+02  8.0002645929e+01  1.041574e-16 9.
       -5     1     4     0     0   102 -8.8778178761e+00 -3.5056945934e+01  4.0623969174e+02  4.0787440745e+02  4.8000000000e+00 0. 9.
       -1     1     5     0     0   104 -1.8894693572e+01 -1.8077910249e+01  3.1568951982e+00  2.6341890051e+01  3.3000000000e-01 0. 9.
        2     1     5     0   104     0  1.5493393494e+01  4.1511801749e+01 -5.8351943056e+01  7.3268909401e+01  3.3000000000e-01 0. 9.
        3     1     7     0   105     0  1.4194399393e+01  2.3265102997e+01  6.7999111869e+01  7.3258959906e+01  5.0000000000e-01 0. 9.
       -4     1     7     0     0   105  6.3526464954e+01 -9.6852252764e+00  1.3847563902e+01  6.5752721345e+01  1.5000000000e+00 0. 9.
#pdf   21   21  9.395176e-02  1.876595e-02  1.857780e+02  8.964412e-01  4.879893e+00
</event>
<event>
    12  9999  1.000000e+00  2.174310e+02  7.895278e-03  1.046738e-01
       21    -1     0     0   101   102  0.0000000000e+00  0.0000000000e+00  5.5492930827e+01  5.5492930827e+01  0.0000000000e+00 0. 9.
       21    -1     0     0   102   103  0.0000000000e+00  0.0000000000e+00 -8.8037420178e+02  8.8037420178e+02  0.0000000000e+00 0. 9.
        6     2     1     2   101     0  1.1187520762e+02 -7.6408054860e+01 -4.9525566903e+02  5.4060388411e+02  1.6917484707e+02  1.308105e-13 9.
       -6     2     1     2     0   103 -1.1187520762e+02  7.6408054860e+01 -3.2962560192e+02  3.9526324850e+02  1.7095538963e+02  3.782152e-14 9.
       24     2     3     0     0     0  2.8491885714e+01 -3.6622093300e+00 -9.9157198507e+01  1.2931107507e+02  7.7871720104e+01  7.114541e-15 9.
        5     1     3     0   101     0  8.3383321904e+01 -7.2745845530e+01 -3.9609847053e+02  4.1129280904e+02  4.8000000000e+00 0. 9.
      -24     2     4     0     0     0 -2.5170284293e+01  4.7459577512e-02 -6.4563289524e+01  1.0607515453e+02  8.0311733825e+01  2.053848e-13 9.
       -5     1     4     0     0   103 -8.6704923325e+01  7.6360595282e+01 -2.6506231240e+02  2.8918809397e+02  4.8000000000e+00 0. 9.
       -3     1     5     0     0   104 -1.6795215761e+01 -2.1754313051e+01 -6.2521863604e+01  6.8297604916e+01  5.0000000000e-01 0. 9.
        4     1     5     0   104     0  4.5287101475e+01  1.8092103721e+01 -3.6635334903e+01  6.1013470157e+01  1.5000000000e+00 0. 9.
        1     1     7     0   105     0  7.5174003020e+00 -3.3797291684e+01 -1.5002402556e+01  3.7735251621e+01  3.3000000000e-01 0. 9.
       -2     1     7     0     0   105 -3.2687684595e+01  3.3844751262e+01 -4.9560886968e+01  6.8339902906e+01  3.3000000000e-01 0. 9.
#pdf   21   21  8.537374e-03  1.354422e-01  2.167357e+02  9.164291e+00  5.196947e-01
</event>
<event>
    12  9999  1.000000e+00  2.421577e+02  7.905026e-03  1.033373e-01
       21    -1     0     0   101   102  0.0000000000e+00  0.0000000000e+00  3.8031261139e+02  3.8031261139e+02  0.0000000000e+00 0. 9.
       21    -1     0     0   102   103  0.0000000000e+00  0.0000000000e+00 -8.2446985085e+02  8.2446985085e+02  0.0000000000e+00 0. 9.
        6     2     1     2   101     0  1.7180033098e+02  1.2505174544e+01  3.2111111031e+02  4.0204333757e+02  1.6986690969e+02  6.022594e-13 9.
       -6     2     1     2     0   103 -1.7180033098e+02 -1.2505174544e+01 -7.6526834976e+02  8.0273912467e+02  1.7053657087e+02  5.304901e-14 9.
       24     2     3     0     0     0  1.7230119521e+02  2.8036408339e+01  1.9092937027e+02  2.7084960477e+02  8.0198141554e+01  7.603369e-14 9.
        5     1     3     0   101     0 -5.0086422479e-01 -1.5531233795e+01  1.3018174003e+02  1.3119373280e+02  4.8000000000e+00 0. 9.
      -24     2     4     0     0     0 -1.7280211136e+02 -1.1176429466e+01 -4.5546291517e+02  4.9289203910e+02  7.4233502233e+01  8.849504e-15 9.
       -5     1     4     0     0   103  1.0017803716e+00 -1.3287450772e+00 -3.0980543460e+02  3.0984708556e+02  4.8000000000e+00 0. 9.
       -1     1     5     0     0   104  3.1985321995e+01 -2.3291087042e+01  2.1795022550e+01  4.5173747538e+01  3.3000000000e-01 0. 9.
        2     1     5     0   104     0  1.4031587321e+02  5.1327495381e+01  1.6913434772e+02  2.2567585723e+02  3.3000000000e-01 0. 9.
       13     1     7     0     0     0 -1.2184468945e+02 -9.1551502145e+00 -2.1699162674e+02  2.4902875810e+02  1.0566000000e-01  3.225897e+05 9.
      -14     1     7     0     0     0 -5.0957421910e+01 -2.0212792520e+00 -2.3847128842e+02  2.4386328100e+02  0.0000000000e+00 0. 9.
#pdf   21   21  5.850963e-02  1.268415e-01  2.419225e+02  1.573766e+00  5.672401e-01
</event>
<event>
    12  9999  1.000000e+00  1.950158e+02  7.885456e-03  1.060600e-01
       21    -1     0     0   101   102  0.0000000000e+00  0.0000000000e+00  5.4809779550e+02  5.4809779550e+02  0.0000000000e+00 0. 9.
       21    -1     0     0   103   101  0.0000000000e+00  0.0000000000e+00 -8.7468115784e+01  8.7468115784e+01  0.0000000000e+00 0. 9.
        6     2     1     2   103     0  9.0488946066e+01  1.9875131521e+01  8.4229928576e+01  2.1083932193e+02  1.6963274622e+02  1.084857e-13 9.
       -6     2     1     2     0   102 -9.0488946066e+01 -1.9875131521e+01  3.7639975114e+02  4.2472658935e+02  1.7358753651e+02  1.357316e-13 9.
       24     2     3     0     0     0  8.7912522949e+01  6.8356143645e+01  3.7017837060e+01  1.4294920425e+02  8.1627082952e+01  9.727623e-14 9.
        5     1     3     0   103     0  2.5764231168e+00 -4.8481012123e+01  4.7212091516e+01  6.7890117675e+01  4.8000000000e+00 0. 9.
      -24     2     4     0     0     0 -6.4467301829e+01  4.2566892036e+01  1.9933759031e+02  2.3512125960e+02  9.7870110354e+01  2.384786e-15 9.
       -5     1     4     0     0   102 -2.6021644237e+01 -6.2442023557e+01  1.7706216082e+02  1.8960532975e+02  4.8000000000e+00 0. 9.
       -3     1     5     0     0   104 -7.1692869604e+00  3.7363914178e+01  9.5315602319e+00  3.9224499980e+01  5.0000000000e-01 0. 9.
        4     1     5     0   104     0  9.5081809910e+01  3.0992229467e+01  2.7486276828e+01  1.0372470427e+02  1.5000000000e+00 0. 9.
        1     1     7     0   105     0  2.1743119275e+01 -2.3640035766e+00  6.9889959167e+01  7.3232964170e+01  3.3000000000e-01 0. 9.
       -2     1     7     0     0   105 -8.6210421104e+01  4.4930895613e+01  1.2944763115e+02  1.6188829543e+02  3.3000000000e-01 0. 9.
#pdf   21   21  8.432274e-02  1.345663e-02  1.932836e+02  1.028772e+00  6.427586e+00
</event>
<event>
    12  9999  1.000000e+00  1.936847e+02  7.884839e-03  1.061485e-01
       21    -1     0     0   101   102  0.0000000000e+00  0.0000000000e+00  1.8504180492e+02  1.8504180492e+02  0.0000000000e+00 0. 9.
       21    -1     0     0   103   101  0.0000000000e+00  0.0000000000e+00 -7.2251762923e+02  7.2251762923e+02  0.0000000000e+00 0. 9.
        6     2     1     2   103     0 -2.0325740826e+01 -9.5194695898e+01 -6.5510596392e+02  6.8427730239e+02  1.7203614949e+02  2.894356e-14 9.
       -6     2     1     2     0   102  2.0325740826e+01  9.5194695898e+01  1.1763013961e+02  2.2328213177e+02  1.6291990289e+02  4.515993e-14 9.
       24     2     3     0     0     0 -2.5245578770e+01 -1.3333977055e+02 -5.5178086857e+02  5.7392166431e+02  8.0666698152e+01  3.918757e-13 9.
        5     1     3     0   103     0  4.9198379436e+00  3.8145074651e+01 -1.0332509535e+02  1.1035563807e+02  4.8000000000e+00 0. 9.
      -24     2     4     0     0     0  4.2329741561e+01 -1.7039013928e+00  5.8884241370e+01  1.0775016751e+02  7.9674553132e+01  6.074198e-14 9.
       -5     1     4     0     0   102 -2.2004000735e+01  9.6898597291e+01  5.8745898240e+01  1.1553196426e+02  4.8000000000e+00 0. 9.
       -3     1     5     0     0   104 -4.2420993967e+01 -5.9071412901e+01 -3.6507195167e+02  3.7224555396e+02  5.0000000000e-01 0. 9.
        4     1     5     0   104     0  1.7175415197e+01 -7.4268357648e+01 -1.8670891690e+02  2.0167611035e+02  1.5000000000e+00 0. 9.
        1     1     7     0   105     0 -2.2500934391e+01  7.4300370787e+00  2.3296157178e+01  3.3231270495e+01  3.3000000000e-01 0. 9.
       -2     1     7     0     0   105  6.4830675952e+01 -9.1339384716e+00  3.5588084192e+01  7.4518897018e+01  3.3000000000e-01 0. 9.
#pdf   21   21  2.846797e-02  1.111566e-01  1.897842e+02  3.360701e+00  7.093926e-01
</event>
<event>
    12  9999  1.000000e+00  1.798219e+02  7.878150e-03  1.071178e-01
       21    -1     0     0   101   102  0.0000000000e+00  0.0000000000e+00  7.3640220004e+02  7.3640220004e+02  0.0000000000e+00 0. 9.
       21    -1     0     0   103   101  0.0000000000e+00  0.0000000000e+00 -6.4428438020e+01  6.4428438020e+01  0.0000000000e+00 0. 9.
        6     2     1     2   103     0  4.9625696169e+01  2.0895036392e+01  1.1099390958e+02  2.1196462041e+02  1.7236600615e+02  1.670399e-13 9.
       -6     2     1     2     0   102 -4.9625696169e+01 -2.0895036392e+01  5.6097985244e+02  5.8886601765e+02  1.7077903747e+02  7.478136e-14 9.
       24     2     3     0     0     0  9.5606910486e+01  1.0929527122e+01  1.0510130314e+02  1.6430597738e+02  8.1792630377e+01  2.478543e-14 9.
        5     1     3     0   103     0 -4.5981214317e+01  9.9655092702e+00  5.8926064413e+00  4.7658643033e+01  4.8000000000e+00 0. 9.
      -24     2     4     0     0     0 -2.6423663138e+01  4.1574168567e+01  1.8743818914e+02  2.0939645349e+02  7.9291730469e+01  1.652752e-14 9.
       -5     1     4     0     0   102 -2.3202033031e+01 -6.2469204959e+01  3.7354166330e+02  3.7946956416e+02  4.8000000000e+00 0. 9.
      -11     1     5     0     0     0  5.6672758010e+01 -9.9941287741e+00  1.0542016133e+02  1.2010451501e+02  5.1100000000e-04 0. 9.
       12     1     5     0     0     0  3.8934152476e+01  2.0923655896e+01 -3.1885818651e-01  4.4201462369e+01  0.0000000000e+00 0. 9.
       13     1     7     0     0     0  4.0809927489e+00  8.3109664557e+00  1.5128710256e+02  1.5157019902e+02  1.0566000000e-01  1.017273e+05 9.
      -14     1     7     0     0     0 -3.0504655887e+01  3.3263202111e+01  3.6151086579e+01  5.7826254473e+01  0.0000000000e+00 0. 9.
#pdf   21   21  1.132926e-01  9.912067e-03  1.790664e+02  6.948360e-01  8.161180e+00
</event>
<event>
    12  9999  1.000000e+00  2.185528e+02  7.895743e-03  1.046091e-01
       21    -1     0     0   101   102  0.0000000000e+00  0.0000000000e+00  8.4484325039e+01  8.4484325039e+01  0.0000000000e+00 0. 9.
       21    -1     0     0   102   103  0.0000000000e+00  0.0000000000e+00 -7.2584124341e+02  7.2584124341e+02  0.0000000000e+00 0. 9.
        6     2     1     2   101     0 -1.3096173620e+02  3.9779620406e+01 -1.2996572552e+02  2.5411799868e+02  1.7015132352e+02  5.571953e-13 9.
       -6     2     1     2     0   103  1.3096173620e+02 -3.9779620406e+01 -5.1139119286e+02  5.5620756977e+02  1.7062389629e+02  7.998168e-14 9.
       24     2     3     0     0     0 -1.5248321242e+02  6.4981246065e+01 -1.1578593193e+02  2.1775314724e+02  8.0847750062e+01  4.497016e-14 9.
        5     1     3     0   101     0  2.1521476216e+01 -2.5201625660e+01 -1.4179793584e+01  3.6364851443e+01  4.8000000000e+00 0. 9.
      -24     2     4     0     0     0  8.2357919407e+01  3.2417454490e+01 -2.2201832566e+02  2.5399167856e+02  8.5941361416e+01  6.778802e-15 9.
       -5     1     4     0     0   103  4.8603816796e+01 -7.2197074896e+01 -2.8937286720e+02  3.0221589121e+02  4.8000000000e+00 0. 9.
       -1     1     5     0     0   104 -8.3177579837e+01  5.8947804617e+01 -2.7961430412e+01  1.0571331017e+02  3.3000000000e-01 0. 9.
        2     1     5     0   104     0 -6.9305632582e+01  6.0334414483e+00 -8.7824501521e+01  1.1203983707e+02  3.3000000000e-01 0. 9.
        1     1     7     0   105     0  2.6996610914e+01  2.6547372760e+01 -1.8079727059e+02  1.8471963067e+02  3.3000000000e-01 0. 9.
       -2     1     7     0     0   105  5.5361308493e+01  5.8700817308e+00 -4.1221055073e+01  6.9272047890e+01  3.3000000000e-01 0. 9.
#pdf   21   21  1.299759e-02  1.116679e-01  2.183687e+02  6.608114e+00  6.936150e-01
</event>
<event>
    12  9999  1.000000e+00  1.959636e+02  7.885894e-03  1.059974e-01
       21    -1     0     0   101   102  0.0000000000e+00  0.0000000000e+00  2.2044317064e+02  2.2044317064e+02  0.0000000000e+00 0. 9.
       21    -1     0     0   102   103  0.0000000000e+00  0.0000000000e+00 -1.9645461672e+02  1.9645461672e+02  0.0000000000e+00 0. 9.
        6     2     1     2   101     0 -6.5655483803e+01  6.5770387636e+01  8.2090432825e+01  2.1159610766e+02  1.7145753752e+02  1.511362e-13 9.
       -6     2     1     2     0   103  6.5655483803e+01 -6.5770387636e+01 -5.8101878903e+01  2.0530167970e+02  1.7359886207e+02  1.071663e-13 9.
       24     2     3     0     0     0 -6.8008903450e+01  9.4771964601e+00 -9.1311177536e+00  1.0427009382e+02  7.7934889183e+01  5.067934e-14 9.
        5     1     3     0   101     0  2.3534196477e+00  5.6293191176e+01  9.1221550579e+01  1.0732601384e+02  4.8000000000e+00 0. 9.
      -24     2     4     0     0     0  1.0337249001e+01 -1.0091841332e+02 -2.3085789648e+01  1.3083922393e+02  7.9338288182e+01  9.046647e-14 9.
       -5     1     4     0     0   103  5.5318234802e+01  3.5148025686e+01 -3.5016089254e+01  7.4462455761e+01  4.8000000000e+00 0. 9.
      -13     1     5     0     0     0 -1.8898850884e+01  9.9091905513e+00  3.3177228981e+01  3.9447411943e+01  1.0566000000e-01  1.789108e+06 9.
       14     1     5     0     0     0 -4.9110052566e+01 -4.3199409115e-01 -4.2308346735e+01  6.4822681874e+01  0.0000000000e+00 0. 9.
       11     1     7     0     0     0 -2.2437850471e+01 -1.8694880687e+00  4.4161214446e+00  2.2944590828e+01  5.1100000000e-04 0. 9.
      -12     1     7     0     0     0  3.2775099472e+01 -9.9048925254e+01 -2.7501911093e+01  1.0789463311e+02  0.0000000000e+00 0. 9.
#pdf   21   21  3.391433e-02  3.022379e-02  1.950233e+02  2.839380e+00  3.173048e+00
</event>
<event>
    12  9999  1.000000e+00  1.853082e+02  7.880855e-03  1.067234e-01
       21    -1     0     0   101   102  0.0000000000e+00  0.0000000000e+00  4.4007178067e+02  4.4007178067e+02  0.0000000000e+00 0. 9.
       21    -1     0     0   102   103  0.0000000000e+00  0.0000000000e+00 -9.2792504507e+01  9.2792504507e+01  0.0000000000e+00 0. 9.
        6     2     1     2   101     0  6.9037872485e+01 -2.0213955373e+01  2.7981181040e+02  3.3554307940e+02  1.7064488584e+02  2.400381e-13 9.
       -6     2     1     2     0   103 -6.9037872485e+01  2.0213955373e+01  6.7467465763e+01  1.9732120578e+02  1.7090631201e+02  4.350447e-13 9.
       24     2     3     0     0     0  6.8473538959e+00  4.2276134196e+01  1.8233873393e+02  2.0402611269e+02  8.0901687185e+01  2.579124e-14 9.
        5     1     3     0   101     0  6.2190518589e+01 -6.2490089568e+01  9.7473076471e+01  1.3151696671e+02  4.8000000000e+00 0. 9.
      -24     2     4     0     0     0 -1.0290527145e+02  4.7635735296e+01  7.0019277500e+01  1.5340644209e+02  7.5974858239e+01  5.890892e-16 9.
       -5     1     4     0     0   103  3.3867398962e+01 -2.7421779923e+01 -2.5518117366e+00  4.3914763688e+01  4.8000000000e+00 0. 9.
      -11     1     5     0     0     0  4.2982522106e+01  1.5126812212e+01  1.0476995070e+02  1.1424999004e+02  5.1100000000e-04 0. 9.
       12     1     5     0     0     0 -3.6135168210e+01  2.7149321984e+01  7.7568783225e+01  8.9776122643e+01  0.0000000000e+00 0. 9.
       13     1     7     0     0     0  9.9927505204e+00 -5.3200003226e+00  9.5817195704e+00  1.4831654674e+01  1.0566000000e-01  6.370538e+05 9.
      -14     1     7     0     0     0 -1.1289802197e+02  5.2955735618e+01  6.0437557930e+01  1.3857478742e+02  0.0000000000e+00 0. 9.
#pdf   21   21  6.770335e-02  1.427577e-02  1.851878e+02  1.354162e+00  6.127733e+00
</event>
<event>
    12  9999  1.000000e+00  1.823161e+02  7.879390e-03  1.069367e-01
       21    -1     0     0   101   102  0.0000000000e+00  0.0000000000e+00  7.1066581101e+02  7.1066581101e+02  0.0000000000e+00 0. 9.
       21    -1     0     0   103   101  0.0000000000e+00  0.0000000000e+00 -5.4722332493e+01  5.4722332493e+01  0.0000000000e+00 0. 9.
        6     2     1     2   103     0 -5.3535695274e+01  3.2770737724e+01  1.8203146250e+02  2.5760034101e+02  1.7112127404e+02  1.227457e-14 9.
       -6     2     1     2     0   102  5.3535695274e+01 -3.2770737724e+01  4.7391201602e+02  5.0778780249e+02  1.7121875340e+02  1.579401e-13 9.
       24     2     3     0     0     0 -1.8500843456e+01  6.4108001371e+00  9.4776564551e+00  7.9498844296e+01  7.6464767740e+01  2.348209e-14 9.
        5     1     3     0   103     0 -3.5034851817e+01  2.6359937587e+01  1.7255380605e+02  1.7810149672e+02  4.8000000000e+00 0. 9.
      -24     2     4     0     0     0 -2.3939350239e+01 -2.4417665631e+00  3.4069875703e+02  3.5065396928e+02  7.9394637215e+01  9.281608e-14 9.
       -5     1     4     0     0   102  7.7475045513e+01 -3.0328971161e+01  1.3321325899e+02  1.5713383321e+02  4.8000000000e+00 0. 9.
      -13     1     5     0     0     0  1.6080136817e+01 -1.3499197906e+01  2.8414950086e+01  3.5330152796e+01  1.0566000000e-01  3.284025e+04 9.
       14     1     5     0     0     0 -3.4580980273e+01  1.9909998043e+01 -1.8937293631e+01  4.4168691500e+01  0.0000000000e+00 0. 9.
        1     1     7     0   104     0 -2.9640662640e+01 -6.2181825595e-01  3.9469205788e+01  4.9364791555e+01  3.3000000000e-01 0. 9.
       -2     1     7     0     0   104  5.7013124011e+00 -1.8199483072e+00  3.0122955124e+02  3.0128917773e+02  3.3000000000e-01 0. 9.
#pdf   21   21  1.093332e-01  8.418820e-03  1.822704e+02  7.294858e-01  9.232432e+00
</event>
<event>
    12  9999  1.000000e+00  1.928457e+02  7.884448e-03  1.062046e-01
       21    -1     0     0   101   102  0.0000000000e+00  0.0000000000e+00  1.9432053995e+03  1.9432053995e+03  0.0000000000e+00 0. 9.
       21    -1     0     0   103   101  0.0000000000e+00  0.0000000000e+00 -3.0298268362e+01  3.0298268362e+01  0.0000000000e+00 0. 9.
        6     2     1     2   103     0  6.9846421584e+01 -4.7604046650e+01  3.5308118234e+02  4.0162267730e+02  1.7172590293e+02  5.008742e-14 9.
       -6     2     1     2     0   102 -6.9846421584e+01  4.7604046650e+01  1.5598259488e+03  1.5718809906e+03  1.7495196502e+02  3.617940e-14 9.
       24     2     3     0     0     0  8.8925043760e+01 -5.8162572344e+00  1.8975837450e+02  2.3189468100e+02  9.9123206808e+01  1.310020e-14 9.
        5     1     3     0   103     0 -1.9078622176e+01 -4.1787789416e+01  1.6332280784e+02  1.6972799630e+02  4.8000000000e+00 0. 9.
      -24     2     4     0     0     0  4.9420062040e+00 -2.2697212857e+01  4.9070425234e+02  4.9783265931e+02  8.0666638166e+01  3.418832e-14 9.
       -5     1     4     0     0   102 -7.4788427788e+01  7.0301259507e+01  1.0691216965e+03  1.0740483313e+03  4.8000000000e+00 0. 9.
       -3     1     5     0     0   104 -1.6147856836e+01  1.9374369445e+01  3.5101397905e+01  4.3225890467e+01  5.0000000000e-01 0. 9.
        4     1     5     0   104     0  1.0507290060e+02 -2.5190626680e+01  1.5465697659e+02  1.8866879053e+02  1.5000000000e+00 0. 9.
       15     1     7     0     0     0  9.8353683299e+00 -2.6598001074e+01  4.9075271542e+02  4.9157458530e+02  1.7768200000e+00  8.643768e-02 9.
      -16     1     7     0     0     0 -4.8933621259e+00  3.9007882176e+00 -4.8463081213e-02  6.2580740076e+00  0.0000000000e+00 0. 9.
#pdf   21   21  2.989547e-01  4.661272e-03  1.914013e+02  1.036371e-01  1.411544e+01
</event>
<event>
    12  9999  1.000000e+00  2.056178e+02  7.890232e-03  1.053809e-01
       21    -1     0     0   101   102  0.0000000000e+00  0.0000000000e+00  1.1077925082e+02  1.1077925082e+02  0.0000000000e+00 0. 9.
       21    -1     0     0   102   103  0.0000000000e+00  0.0000000000e+00 -4.2421531970e+02  4.2421531970e+02  0.0000000000e+00 0. 9.
        6     2     1     2   101     0  1.0615531213e+02  3.3358768004e+01 -7.3007558935e+01  2.1957896667e+02  1.7465125606e+02  1.674457e-13 9.
       -6     2     1     2     0   103 -1.0615531213e+02 -3.3358768004e+01 -2.4042850994e+02  3.1541560385e+02  1.7117060806e+02  2.702649e-13 9.
       24     2     3     0     0     0  1.5043483738e+01 -3.8689318627e+01 -3.3309590139e+01  9.6732473894e+01  8.0774209570e+01  1.291056e-13 9.
        5     1     3     0   101     0  9.1111828391e+01  7.2048086630e+01 -3.9697968796e+01  1.2284649277e+02  4.8000000000e+00 0. 9.
      -24     2     4     0     0     0 -5.5618453589e+01 -8.5014797875e+01 -1.7713642324e+02  2.1923219711e+02  7.9777914067e+01  2.677924e-14 9.
       -5     1     4     0     0   103 -5.0536858540e+01  5.1656029872e+01 -6.3292086701e+01  9.6183406740e+01  4.8000000000e+00 0. 9.
      -15     1     5     0     0     0 -1.1684241369e+01  3.0413375906e+00 -4.4318632943e+01  4.5968136203e+01  1.7768200000e+00  1.783875e-02 9.
       16     1     5     0     0     0  2.6727725107e+01 -4.1730656217e+01  1.1009042804e+01  5.0764337691e+01  0.0000000000e+00 0. 9.
        1     1     7     0   104     0 -4.5758929197e+01 -6.3704701246e+01 -5.7351633802e+01  9.7167316325e+01  3.3000000000e-01 0. 9.
       -2     1     7     0     0   104 -9.8595243918e+00 -2.1310096630e+01 -1.1978478944e+02  1.2206488078e+02  3.3000000000e-01 0. 9.
#pdf   21   21  1.704296e-02  6.526390e-02  2.041596e+02  5.288779e+00  1.403609e+00
</event>
<event>
    12  9999  1.000000e+00  1.832703e+02  7.879860e-03  1.068682e-01
       21    -1     0     0   101   102  0.0000000000e+00  0.0000000000e+00  7.5793517345e+02  7.5793517345e+02  0.0000000000e+00 0. 9.
       21    -1     0     0   103   101  0.0000000000e+00  0.0000000000e+00 -8.7805679342e+01  8.7805679342e+01  0.0000000000e+00 0. 9.
        6     2     1     2   103     0 -2.4239308384e+01  1.6834497391e+00  2.6784539883e+01  1.7307591011e+02  1.6925566759e+02  6.011505e-13 9.
       -6     2     1     2     0   102  2.4239308384e+01 -1.6834497391e+00  6.4334495422e+02  6.7266494268e+02  1.9492310513e+02  3.993426e-14 9.
       24     2     3     0     0     0 -2.8058339480e+01 -5.6090814120e+01 -1.4487959181e+01  1.0180944014e+02  7.8878459021e+01  6.556753e-15 9.
        5     1     3     0   103     0  3.8190310958e+00  5.7774263860e+01  4.1272499064e+01  7.1266469970e+01  4.8000000000e+00 0. 9.
      -24     2     4     0     0     0 -4.3778440762e+01 -5.3722910155e+01  2.5343546638e+02  2.7343196765e+02  7.5715271670e+01  7.285767e-14 9.
       -5     1     4     0     0   102  6.8017749147e+01  5.2039460416e+01  3.8990948784e+02  3.9923297503e+02  4.8000000000e+00 0. 9.
      -13     1     5     0     0     0 -3.5879683573e+01  7.5305933373e+00 -4.5365861581e+00  3.6941214210e+01  1.0566000000e-01  3.374872e+05 9.
       14     1     5     0     0     0  7.8213440931e+00 -6.3621407458e+01 -9.9513730226e+00  6.4868225930e+01  0.0000000000e+00 0. 9.
       15     1     7     0     0     0  1.9258800820e+01 -1.9322031434e+01  4.1817701096e+01  4.9961180150e+01  1.7768200000e+00  1.319350e-01 9.
      -16     1     7     0     0     0 -6.3037241582e+01 -3.4400878721e+01  2.1161776529e+02  2.2347078750e+02  0.0000000000e+00 0. 9.
#pdf   21   21  1.166054e-01  1.350857e-02  1.709908e+02  6.700555e-01  6.405751e+00
</event>
<event>
    12  9999  1.000000e+00  1.936926e+02  7.884843e-03  1.061479e-01
        2    -1     0     0   101     0  0.0000000000e+00  0.0000000000e+00  2.4516453067e+03  2.4516453067e+03  0.0000000000e+00 0. 9.
       -2    -1     0     0     0   102  0.0000000000e+00  0.0000000000e+00 -1.6241650743e+01  1.6241650743e+01  0.0000000000e+00 0. 9.
        6     2     1     2   101     0 -7.9475094380e+01  1.7833475558e+01  1.4936015132e+03  1.5056814187e+03  1.7203700493e+02  8.327433e-14 9.
       -6     2     1     2     0   102  7.9475094380e+01 -1.7833475558e+01  9.4180214281e+02  9.6220553875e+02  1.7948230862e+02  1.427562e-13 9.
       24     2     3     0     0     0 -1.1924062305e+02  2.7355526276e+01  1.0393005621e+03  1.0495187714e+03  7.9858262062e+01  1.421662e-13 9.
        5     1     3     0   101     0  3.9765528670e+01 -9.5220507178e+00  4.5430095104e+02  4.5616264735e+02  4.8000000000e+00 0. 9.
      -24     2     4     0     0     0 -2.7438256907e+01 -2.4778673990e+01  3.9529388244e+02  4.0527374838e+02  8.1380077443e+01  6.459184e-14 9.
       -5     1     4     0     0   102  1.0691335129e+02  6.9451984315e+00  5.4650826038e+02  5.5693179037e+02  4.8000000000e+00 0. 9.
      -13     1     5     0     0     0  8.3989509698e+00 -1.5607586346e+00  1.8674413880e+01  2.0535901312e+01  1.0566000000e-01  2.536042e+04 9.
       14     1     5     0     0     0 -1.2763957402e+02  2.8916284911e+01  1.0206261482e+03  1.0289828701e+03  0.0000000000e+00 0. 9.
       15     1     7     0     0     0 -2.2132919517e+01 -3.5559075904e+01  8.5279799975e+01  9.5026919231e+01  1.7768200000e+00  1.067255e-01 9.
      -16     1     7     0     0     0 -5.3053373891e+00  1.0780401914e+01  3.1001408246e+02  3.1024682915e+02  0.0000000000e+00 0. 9.
#pdf    2   -2  3.771762e-01  2.498715e-03  1.903446e+02  2.103698e-01  1.068791e+00
</event>
<event>
    12  9999  1.000000e+00  2.564639e+02  7.910230e-03  1.026390e-01
       21    -1     0     0   101   102  0.0000000000e+00  0.0000000000e+00  8.1303052823e+01  8.1303052823e+01  0.0000000000e+00 0. 9.
       21    -1     0     0   102   103  0.0000000000e+00  0.0000000000e+00 -1.1999722391e+03  1.1999722391e+03  0.0000000000e+00 0. 9.
        6     2     1     2   101     0 -1.7738342391e+02  7.1448983368e+01 -1.9360134865e+02  3.2130530174e+02  1.7083845710e+02  5.725609e-14 9.
       -6     2     1     2     0   103  1.7738342391e+02 -7.1448983368e+01 -9.2506783764e+02  9.5996999020e+02  1.7094455694e+02  7.337143e-14 9.
       24     2     3     0     0     0 -1.7458377392e+02  9.3549931209e+00 -1.5304142657e+02  2.4693024581e+02  8.3581445526e+01  2.025109e-14 9.
        5     1     3     0   101     0 -2.7996499868e+00  6.2093990247e+01 -4.0559922078e+01  7.4375055925e+01  4.8000000000e+00 0. 9.
      -24     2     4     0     0     0  1.3304759416e+02  5.0590460360e+00 -5.9230038324e+02  6.1562080250e+02  1.0218596883e+02  7.466437e-14 9.
       -5     1     4     0     0   103  4.4335829748e+01 -7.6508029404e+01 -3.3276745440e+02  3.4434918770e+02  4.8000000000e+00 0. 9.
       -3     1     5     0     0   104 -1.3557819471e+02  3.6298547963e+01 -8.5323472373e+01  1.6425399966e+02  5.0000000000e-01 0. 9.
        4     1     5     0   104     0 -3.9005579206e+01 -2.6943554842e+01 -6.7717954200e+01  8.2676246152e+01  1.5000000000e+00 0. 9.
        1     1     7     0   105     0  1.1769672961e+02  6.4251034568e+00 -2.9155874821e+02  3.1448436316e+02  3.3000000000e-01 0. 9.
       -2     1     7     0     0   105  1.5350864546e+01 -1.3660574208e+00 -3.0074163504e+02  3.0113643934e+02  3.3000000000e-01 0. 9.
#pdf   21   21  1.250816e-02  1.846111e-01  2.564286e+02  6.812665e+00  2.984387e-01
</event>
<event>
    12  9999  1.000000e+00  2.452326e+02  7.906169e-03  1.031829e-01
       21    -1     0     0   101   102  0.0000000000e+00  0.0000000000e+00  3.3644983389e+01  3.3644983389e+01  0.0000000000e+00 0. 9.
       21    -1     0     0   103   101  0.0000000000e+00  0.0000000000e+00 -1.8181671271e+03  1.8181671271e+03  0.0000000000e+00 0. 9.
        6     2     1     2   103     0 -1.7508239706e+02  6.2406855483e-01 -1.0113926731e+03  1.0406204680e+03  1.7123546311e+02  9.552114e-14 9.
       -6     2     1     2     0   102  1.7508239706e+02 -6.2406855483e-01 -7.7312947055e+02  8.1119164251e+02  1.7218730332e+02  6.093174e-14 9.
       24     2     3     0     0     0 -1.6793492527e+02 -2.9287220531e+01 -9.7300263671e+02  9.9119773568e+02  8.1724780684e+01  2.688519e-14 9.
        5     1     3     0   103     0 -7.1474717854e+00  2.9911289086e+01 -3.8390036437e+01  4.9422732273e+01  4.8000000000e+00 0. 9.
      -24     2     4     0     0     0  8.6871735025e+01  1.1777401260e+01 -6.3997344636e+02  6.5091536814e+02  8.0245865314e+01  2.494067e-13 9.
       -5     1     4     0     0   102  8.8210662034e+01 -1.2401469814e+01 -1.3315602418e+02  1.6027627437e+02  4.8000000000e+00 0. 9.
       -1     1     5     0     0   104  5.6527426068e+00 -9.0866804972e+00 -1.2002841919e+02  1.2050498569e+02  3.3000000000e-01 0. 9.
        2     1     5     0   104     0 -1.7358766788e+02 -2.0200540034e+01 -8.5297421751e+02  8.7069275000e+02  3.3000000000e-01 0. 9.
        1     1     7     0   105     0 -3.0269300983e+00  2.6625302973e+01 -1.8237682668e+02  1.8433525131e+02  3.3000000000e-01 0. 9.
       -2     1     7     0     0   105  8.9898665123e+01 -1.4847901714e+01 -4.5759661968e+02  4.6658011683e+02  3.3000000000e-01 0. 9.
#pdf   21   21  5.176151e-03  2.797180e-01  2.448996e+02  1.323654e+01  1.181165e-01
</event>
<event>
    12  9999  1.000000e+00  1.885917e+02  7.882438e-03  1.064942e-01
       21    -1     0     0   101   102  0.0000000000e+00  0.0000000000e+00  6.5724123944e+02  6.5724123944e+02  0.0000000000e+00 0. 9.
       21    -1     0     0   102   103  0.0000000000e+00  0.0000000000e+00 -7.1973745173e+01  7.1973745173e+01  0.0000000000e+00 0. 9.
        6     2     1     2   101     0 -2.7092753790e+01  7.5241601396e+01  1.1068611050e+02  2.1843017332e+02  1.7048463177e+02  5.694841e-14 9.
       -6     2     1     2     0   103  2.7092753790e+01 -7.5241601396e+01  4.7458138377e+02  5.1078481130e+02  1.7110908141e+02  1.746914e-13 9.
       24     2     3     0     0     0 -4.2700788398e+01  9.2073321817e+01  3.1219518886e+01  1.3557550092e+02  8.4292373136e+01  5.034903e-13 9.
        5     1     3     0   101     0  1.5608034608e+01 -1.6831720421e+01  7.9466591612e+01  8.2854672404e+01  4.8000000000e+00 0. 9.
      -24     2     4     0     0     0  3.2751658202e+01  1.0396005567e+01  1.3587175544e+02  1.6133799810e+02  7.9925388075e+01  3.153171e-14 9.
       -5     1     4     0     0   103 -5.6589044113e+00 -8.5637606963e+01  3.3870962834e+02  3.4944681320e+02  4.8000000000e+00 0. 9.
       -3     1     5     0     0   104 -1.3320141362e+01 -2.9491480330e+00 -1.9590219383e+01  2.3877820996e+01  5.0000000000e-01 0. 9.
        4     1     5     0   104     0 -2.9380647036e+01  9.5022469850e+01  5.0809738269e+01  1.1169767992e+02  1.5000000000e+00 0. 9.
       13     1     7     0     0     0  4.8638262552e+01  1.3099531339e+01  1.3620365956e+02  1.4521957976e+02  1.0566000000e-01  1.980208e+05 9.
      -14     1     7     0     0     0 -1.5886604350e+01 -2.7035257719e+00 -3.3190412150e-01  1.6118418338e+01  0.0000000000e+00 0. 9.
#pdf   21   21  1.011140e-01  1.107288e-02  1.883091e+02  8.105464e-01  7.498764e+00
</event>
<event>
    12  9999  1.000000e+00  1.840770e+02  7.880255e-03  1.068106e-01
       21    -1     0     0   101   102  0.0000000000e+00  0.0000000000e+00  3.3838268139e+01  3.3838268139e+01  0.0000000000e+00 0. 9.
       21    -1     0     0   102   103  0.0000000000e+00  0.0000000000e+00 -1.0016664648e+03  1.0016664648e+03  0.0000000000e+00 0. 9.
        6     2     1     2   101     0  3.2762800542e+01  5.4102333369e+01 -4.8874217011e+02  5.2180063434e+02  1.7148332159e+02  2.377974e-13 9.
       -6     2     1     2     0   103 -3.2762800542e+01 -5.4102333369e+01 -4.7908602652e+02  5.1370409857e+02  1.7426421463e+02  4.402865e-14 9.
       24     2     3     0     0     0  1.8104544430e+01 -3.8016530425e+01 -2.3578254139e+02  2.5214833359e+02  7.8818425473e+01  1.075806e-13 9.
        5     1     3     0   101     0  1.4658256113e+01  9.2118863794e+01 -2.5295962872e+02  2.6965230075e+02  4.8000000000e+00 0. 9.
      -24     2     4     0     0     0  1.3455185971e+01 -7.4242195424e+01 -2.1259870639e+02  2.4244730490e+02  8.8823083047e+01  7.769711e-15 9.
       -5     1     4     0     0   103 -4.6217986513e+01  2.0139862055e+01 -2.6648732013e+02  2.7125679367e+02  4.8000000000e+00 0. 9.
       -3     1     5     0     0   104  2.4385783316e+01 -5.4051724102e+00 -2.0601493355e+02  2.0752417971e+02  5.0000000000e-01 0. 9.
        4     1     5     0   104     0 -6.2812388863e+00 -3.2611358014e+01 -2.9767607838e+01  4.4624153884e+01  1.5000000000e+00 0. 9.
        3     1     7     0   105     0 -2.9141089899e+01 -6.1516849886e+01 -1.5798399437e+02  1.7202534237e+02  5.0000000000e-01 0. 9.
       -2     1     7     0     0   105  4.2596275870e+01 -1.2725345538e+01 -5.4614712021e+01  7.0421962528e+01  3.3000000000e-01 0. 9.
#pdf   21   21  5.205887e-03  1.541025e-01  1.827758e+02  1.304952e+01  4.321366e-01
</event>
<event>
    12  9999  1.000000e+00  2.155127e+02  7.894477e-03  1.047853e-01
        1    -1     0     0   101     0  0.0000000000e+00  0.0000000000e+00  1.8968254605e+02  1.8968254605e+02  0.0000000000e+00 0. 9.
       -1    -1     0     0     0   102  0.0000000000e+00  0.0000000000e+00 -3.0338820277e+02  3.0338820277e+02  0.0000000000e+00 0. 9.
        6     2     1     2   101     0 -6.6191775880e+01  1.2023507863e+02 -1.6590708419e+02  2.7524645343e+02  1.7145735392e+02  9.290442e-14 9.
       -6     2     1     2     0   102  6.6191775880e+01 -1.2023507863e+02  5.2201427470e+01  2.1782429538e+02  1.6088694571e+02  3.865796e-13 9.
       24     2     3     0     0     0 -1.6793031033e+01  4.2648918365e+01 -7.8185797290e+00  9.2285081826e+01  7.9714929653e+01  2.715913e-14 9.
        5     1     3     0   101     0 -4.9398744848e+01  7.7586160264e+01 -1.5808850446e+02  1.8296137161e+02  4.8000000000e+00 0. 9.
      -24     2     4     0     0     0  5.8423925519e+01 -6.7513763476e+01  9.2015546633e+01  1.5113036271e+02  8.0012888825e+01  1.098723e-13 9.
       -5     1     4     0     0   102  7.7678503612e+00 -5.2721315153e+01 -3.9814119163e+01  6.6693932673e+01  4.8000000000e+00 0. 9.
      -15     1     5     0     0     0  2.9099307462e+01  3.2996352567e+01 -1.0660187629e+01  4.5302601107e+01  1.7768200000e+00  8.722097e-02 9.
       16     1     5     0     0     0 -4.5892338495e+01  9.6525657986e+00  2.8416079003e+00  4.6982480719e+01  0.0000000000e+00 0. 9.
       11     1     7     0     0     0  7.5802233581e+00 -2.0193658847e+00  6.2697537231e+01  6.3186381443e+01  5.1100000000e-04 0. 9.
      -12     1     7     0     0     0  5.0843702161e+01 -6.5494397591e+01  2.9318009401e+01  8.7943981264e+01  0.0000000000e+00 0. 9.
#pdf    1   -1  2.918193e-02  4.667511e-02  2.114768e+02  4.967505e-01  2.009867e-01
</event>
<event>
    12  9999  1.000000e+00  1.981287e+02  7.886885e-03  1.058559e-01
       21    -1     0     0   101   102  0.0000000000e+00  0.0000000000e+00  1.4458211530e+03  1.4458211530e+03  0.0000000000e+00 0. 9.
       21    -1     0     0   102   103  0.0000000000e+00  0.0000000000e+00 -3.8125030338e+01  3.8125030338e+01  0.0000000000e+00 0. 9.
        6     2     1     2   101     0  5.8396053983e+01 -8.2167803052e+01  3.0636279305e+02  3.6497488282e+02  1.7084161421e+02  8.369416e-14 9.
       -6     2     1     2     0   103 -5.8396053983e+01  8.2167803052e+01  1.1013333296e+03  1.1189713005e+03  1.7029392673e+02  1.331397e-13 9.
       24     2     3     0     0     0 -2.4455988272e+00  5.5847542407e+00  7.8355964516e+01  1.1315675026e+02  8.1410211407e+01  6.012111e-14 9.
        5     1     3     0   101     0  6.0841652810e+01 -8.7752557293e+01  2.2800682853e+02  2.5181813256e+02  4.8000000000e+00 0. 9.
      -24     2     4     0     0     0  5.1090381811e+01  2.9560639772e+01  5.4550627288e+02  5.5000596744e+02  3.8018573417e+01  3.734594e-14 9.
       -5     1     4     0     0   103 -1.0948643579e+02  5.2607163281e+01  5.5582705669e+02  5.6896533304e+02  4.8000000000e+00 0. 9.
      -15     1     5     0     0     0 -1.0893574996e+01  2.8079149988e+01  8.3325808470e+01  8.8619727413e+01  1.7768200000e+00  1.193661e-01 9.
       16     1     5     0     0     0  8.4479761690e+00 -2.2494395747e+01 -4.9698439543e+00  2.4537022850e+01  0.0000000000e+00 0. 9.
        1     1     7     0   104     0  4.1727414547e+01  3.6951278892e+01  4.9405003995e+02  4.9718419626e+02  3.3000000000e-01 0. 9.
       -2     1     7     0     0   104  9.3629672643e+00 -7.3906391204e+00  5.1456232928e+01  5.2821771172e+01  3.3000000000e-01 0. 9.
#pdf   21   21  2.224340e-01  5.865389e-03  1.978931e+02  2.151176e-01  1.203390e+01
</event>
<event>
    12  9999  1.000000e+00  2.738950e+02  7.916201e-03  1.018508e-01
       21    -1     0     0   101   102  0.0000000000e+00  0.0000000000e+00  1.5262832190e+02  1.5262832190e+02  0.0000000000e+00 0. 9.
       21    -1     0     0   102   103  0.0000000000e+00  0.0000000000e+00 -5.5978130490e+02  5.5978130490e+02  0.0000000000e+00 0. 9.
        6     2     1     2   101     0  2.1124357676e+02  1.8609773515e+01 -8.0039586269e+01  2.8660054456e+02  1.7539488129e+02  1.280762e-13 9.
       -6     2     1     2     0   103 -2.1124357676e+02 -1.8609773515e+01 -3.2711339674e+02  4.2580908223e+02  1.7128931022e+02  6.320266e-14 9.
       24     2     3     0     0     0  2.1905798996e+02  1.8709622934e+01 -3.0361023271e+01  2.3608248200e+02  8.0477907657e+01  1.386277e-14 9.
        5     1     3     0   101     0 -7.8144131957e+00 -9.9849418619e-02 -4.9678562998e+01  5.0518062562e+01  4.8000000000e+00 0. 9.
      -24     2     4     0     0     0 -1.6078856013e+02 -4.9088034942e+01 -1.4797017321e+02  2.3715604712e+02  7.8007834747e+01  1.348820e-13 9.
       -5     1     4     0     0   103 -5.0455016632e+01  3.0478261427e+01 -1.7914322353e+02  1.8865303512e+02  4.8000000000e+00 0. 9.
       -1     1     5     0     0   104  6.1828064227e+01  3.5486057354e+01 -3.1542843705e+01  7.7955305667e+01  3.3000000000e-01 0. 9.
        2     1     5     0   104     0  1.5722992573e+02 -1.6776434420e+01  1.1818204341e+00  1.5812717634e+02  3.3000000000e-01 0. 9.
        3     1     7     0   105     0 -1.4656710004e+02 -5.1248815256e+01 -1.5642546407e+02  2.2040311179e+02  5.0000000000e-01 0. 9.
       -4     1     7     0     0   105 -1.4221460086e+01  2.1607803141e+00  8.4552908552e+00  1.6752935324e+01  1.5000000000e+00 0. 9.
#pdf   21   21  2.348128e-02  8.612020e-02  2.725990e+02  3.968168e+00  9.688978e-01
</event>
<event>
    12  9999  1.000000e+00  2.773738e+02  7.917348e-03  1.017009e-01
       21    -1     0     0   101   102  0.0000000000e+00  0.0000000000e+00  9.4611893465e+02  9.4611893465e+02  0.0000000000e+00 0. 9.
       21    -1     0     0   103   101  0.0000000000e+00  0.0000000000e+00 -8.5794979529e+01  8.5794979529e+01  0.0000000000e+00 0. 9.
        6     2     1     2   103     0  2.0919475096e+02 -6.2852945326e+01  3.1284028516e+02  4.1834227429e+02  1.7154672213e+02  2.977139e-13 9.
       -6     2     1     2     0   102 -2.0919475096e+02  6.2852945326e+01  5.4748366997e+02  6.1357163989e+02  1.7034920555e+02  1.415022e-13 9.
       24     2     3     0     0     0  1.3519716901e+02  2.5734173317e+01  1.8355425220e+02  2.4496050466e+02  8.5865960397e+01  2.586909e-13 9.
        5     1     3     0   103     0  7.3997581949e+01 -8.8587118643e+01  1.2928603296e+02  1.7338176963e+02  4.8000000000e+00 0. 9.
      -24     2     4     0     0     0 -7.0556592810e+01  8.1368842520e+00  1.2150298187e+02  1.6224362960e+02  8.0719136950e+01  3.558471e-14 9.
       -5     1     4     0     0   102 -1.3863815815e+02  5.4716061074e+01  4.2598068810e+02  4.5132801029e+02  4.8000000000e+00 0. 9.
      -13     1     5     0     0     0  1.4764637457e+02  2.2533646412e+01  1.6852616122e+02  2.2518502464e+02  1.0566000000e-01  7.456917e+05 9.
       14     1     5     0     0     0 -1.2449205551e+01  3.2005269055e+00  1.5028090978e+01  1.9775480014e+01  0.0000000000e+00 0. 9.
       15     1     7     0     0     0  1.2842744146e+01  1.0215550510e+01  4.9034763871e+01  5.1738367839e+01  1.7768200000e+00  3.534793e-04 9.
      -16     1     7     0     0     0 -8.3399336956e+01 -2.0786662584e+00  7.2468217998e+01  1.1050526177e+02  0.0000000000e+00 0. 9.
#pdf   21   21  1.455568e-01  1.319923e-02  2.770050e+02  4.481717e-01  6.519754e+00
</event>
<event>
    12  9999  1.000000e+00  2.429094e+02  7.905306e-03  1.032993e-01
       21    -1     0     0   101   102  0.0000000000e+00  0.0000000000e+00  1.4570244617e+02  1.4570244617e+02  0.0000000000e+00 0. 9.
       21    -1     0     0   102   103  0.0000000000e+00  0.0000000000e+00 -1.0187579756e+03  1.0187579756e+03  0.0000000000e+00 0. 9.
        6     2     1     2   101     0 -1.2568940644e+02  1.1785391764e+02  1.5236041216e+01  2.4361526351e+02  1.7154849713e+02  5.195475e-13 9.
       -6     2     1     2     0   103  1.2568940644e+02 -1.1785391764e+02 -8.8829157069e+02  9.2084515831e+02  1.7089914636e+02  3.368312e-14 9.
       24     2     3     0     0     0 -2.2448429780e+01  9.0795883674e+01  4.7478719476e+01  1.3202016162e+02  8.0170254951e+01  3.557448e-14 9.
        5     1     3     0   101     0 -1.0324097666e+02  2.7058033966e+01 -3.2242678260e+01  1.1159510189e+02  4.8000000000e+00 0. 9.
      -24     2     4     0     0     0  6.7874058792e+01 -1.3758035274e+02 -7.4975285142e+02  7.6935996629e+02  7.9058068484e+01  1.016597e-13 9.
       -5     1     4     0     0   103  5.7815347648e+01  1.9726435096e+01 -1.3853871927e+02  1.5148519202e+02  4.8000000000e+00 0. 9.
      -13     1     5     0     0     0 -3.0089198977e+01  7.8641530457e+01  6.7128041205e+01  1.0768488886e+02  1.0566000000e-01  3.465237e+05 9.
       14     1     5     0     0     0  7.6407691961e+00  1.2154353217e+01 -1.9649321729e+01  2.4335272763e+01  0.0000000000e+00 0. 9.
       11     1     7     0     0     0  4.1197705313e+01 -5.4837760924e+01 -5.0477473449e+02  5.0941335233e+02  5.1100000000e-04 0. 9.
      -12     1     7     0     0     0  2.6676353479e+01 -8.2742591812e+01 -2.4497811693e+02  2.5994661396e+02  0.0000000000e+00 0. 9.
#pdf   21   21  2.241576e-02  1.567320e-01  2.426806e+02  4.152004e+00  4.033354e-01
</event>
<event>
    12  9999  1.000000e+00  1.830954e+02  7.879774e-03  1.068807e-01
       21    -1     0     0   101   102  0.0000000000e+00  0.0000000000e+00  3.0060381153e+03  3.0060381153e+03  0.0000000000e+00 0. 9.
       21    -1     0     0   102   103  0.0000000000e+00  0.0000000000e+00 -1.1132691537e+02  1.1132691537e+02  0.0000000000e+00 0. 9.
        6     2     1     2   101     0 -6.4285936593e+01 -9.3153516448e-01  2.9253808707e+03  2.9310638576e+03  1.7072946336e+02  3.136494e-14 9.
       -6     2     1     2     0   103  6.4285936593e+01  9.3153516448e-01 -3.0669670721e+01  1.8630117306e+02  1.7214513929e+02  5.465504e-14 9.
       24     2     3     0     0     0 -4.4730965750e+01  6.4453379502e+01  1.8209439986e+03  1.8245100052e+03  8.2732192143e+01  9.996981e-14 9.
        5     1     3     0   101     0 -1.9554970842e+01 -6.5384914666e+01  1.1044368721e+03  1.1065538525e+03  4.8000000000e+00 0. 9.
      -24     2     4     0     0     0  1.8018309041e+01  6.3891229195e+01 -1.4966613001e+01  1.0646232003e+02  8.1874766884e+01  1.870981e-13 9.
       -5     1     4     0     0   103  4.6267627551e+01 -6.2959694031e+01 -1.5703057720e+01  7.9838853032e+01  4.8000000000e+00 0. 9.
      -11     1     5     0     0     0 -5.8422688342e+01  4.4347055031e+01  8.2092707905e+02  8.2419727063e+02  5.1100000000e-04 0. 9.
       12     1     5     0     0     0  1.3691722591e+01  2.0106324470e+01  1.0000169195e+03  1.0003127346e+03  0.0000000000e+00 0. 9.
       15     1     7     0     0     0  3.9437659954e+01  6.5224658486e+01  5.9774658582e+00  7.6475305064e+01  1.7768200000e+00  1.465553e-01 9.
      -16     1     7     0     0     0 -2.1419350912e+01 -1.3334292911e+00 -2.0944078859e+01  2.9987014964e+01  0.0000000000e+00 0. 9.
#pdf   21   21  4.624674e-01  1.712722e-02  1.824338e+02  1.618920e-02  5.273231e+00
</event>
<event>
    12  9999  1.000000e+00  1.974666e+02  7.886583e-03  1.058990e-01
       21    -1     0     0   101   102  0.0000000000e+00  0.0000000000e+00  6.5767290551e+01  6.5767290551e+01  0.0000000000e+00 0. 9.
       21    -1     0     0   103   101  0.0000000000e+00  0.0000000000e+00 -6.3218862231e+02  6.3218862231e+02  0.0000000000e+00 0. 9.
        6     2     1     2   103     0 -4.6792201837e+00  9.7377961768e+01 -3.6950665703e+02  4.1871501359e+02  1.7112197543e+02  1.002199e-14 9.
       -6     2     1     2     0   102  4.6792201837e+00 -9.7377961768e+01 -1.9691467472e+02  2.7924089927e+02  1.7232448510e+02  1.136802e-13 9.
       24     2     3     0     0     0  5.5431549771e+01  9.5186225290e+01 -2.6679557004e+02  2.9959022287e+02  8.0258029189e+01  1.385072e-13 9.
        5     1     3     0   103     0 -6.0110769955e+01  2.1917364776e+00 -1.0271108699e+02  1.1912479072e+02  4.8000000000e+00 0. 9.
      -24     2     4     0     0     0  5.3339868477e+01 -1.1039732054e+02 -1.5596419388e+02  2.1414601256e+02  8.0628623761e+01  2.459525e-13 9.
       -5     1     4     0     0   102 -4.8660648293e+01  1.3019358770e+01 -4.0950480841e+01  6.5094886713e+01  4.8000000000e+00 0. 9.
       -3     1     5     0     0   104  2.4954484713e+01  2.3995691356e+01 -1.8011607057e+01  3.9028034792e+01  5.0000000000e-01 0. 9.
        4     1     5     0   104     0  3.0477065058e+01  7.1190533934e+01 -2.4878396299e+02  2.6056218808e+02  1.5000000000e+00 0. 9.
        3     1     7     0   105     0  6.3280225234e+01 -4.2038966438e+01 -6.5407072822e+01  1.0024967222e+02  5.0000000000e-01 0. 9.
       -2     1     7     0     0   105 -9.9403567569e+00 -6.8358354100e+01 -9.0557121060e+01  1.1389634034e+02  3.3000000000e-01 0. 9.
#pdf   21   21  1.011804e-02  9.725979e-02  1.969444e+02  8.043981e+00  8.506959e-01
</event>
<event>
    12  9999  1.000000e+00  1.842845e+02  7.880357e-03  1.067959e-01
       21    -1     0     0   101   102  0.0000000000e+00  0.0000000000e+00  5.4677013756e+02  5.4677013756e+02  0.0000000000e+00 0. 9.
       21    -1     0     0   103   101  0.0000000000e+00  0.0000000000e+00 -1.5956362244e+02  1.5956362244e+02  0.0000000000e+00 0. 9.
        6     2     1     2   103     0  5.8967540766e+01 -3.7665182974e+01 -8.2644218988e+01  2.0141187810e+02  1.6982591332e+02  1.213463e-13 9.
       -6     2     1     2     0   102 -5.8967540766e+01  3.7665182974e+01  4.6985073411e+02  5.0492188189e+02  1.7114484391e+02  3.763576e-13 9.
       24     2     3     0     0     0  2.6874200053e+01 -6.2203114769e+01  4.4491834494e+00  1.0528491330e+02  8.0459105257e+01  2.937860e-14 9.
        5     1     3     0   103     0  3.2093340713e+01  2.4537931795e+01 -8.7093402438e+01  9.6126964807e+01  4.8000000000e+00 0. 9.
      -24     2     4     0     0     0 -6.3190808670e+00  2.2288705890e+01  4.2769347886e+02  4.3557802457e+02  7.9181983065e+01  1.093422e-13 9.
       -5     1     4     0     0   102 -5.2648459899e+01  1.5376477084e+01  4.2157255250e+01  6.9343857316e+01  4.8000000000e+00 0. 9.
       -1     1     5     0     0   104  2.3031510417e+01 -5.6999361988e+00 -3.0569563389e+01  3.8698150480e+01  3.3000000000e-01 0. 9.
        2     1     5     0   104     0  3.8426896365e+00 -5.6503178570e+01  3.5018746838e+01  6.6586762816e+01  3.3000000000e-01 0. 9.
       15     1     7     0     0     0  1.6035093856e+01  2.0481394633e+00  3.7105987152e+02  3.7141607996e+02  1.7768200000e+00  4.775792e-02 9.
      -16     1     7     0     0     0 -2.2354174723e+01  2.0240566426e+01  5.6633607334e+01  6.4161944613e+01  0.0000000000e+00 0. 9.
#pdf   21   21  8.411848e-02  2.454825e-02  1.836755e+02  1.036800e+00  3.854753e+00
</event>
<event>
    12  9999  1.000000e+00  1.768137e+02  7.876632e-03  1.073406e-01
       21    -1     0     0   101   102  0.0000000000e+00  0.0000000000e+00  1.0497631763e+03  1.0497631763e+03  0.0000000000e+00 0. 9.
       21    -1     0     0   102   103  0.0000000000e+00  0.0000000000e+00 -4.3178524615e+01  4.3178524615e+01  0.0000000000e+00 0. 9.
        6     2     1     2   101     0  3.4335286692e+01  3.4713751492e+01  1.9994194516e+02  2.6726146695e+02  1.7049326623e+02  1.735833e-13 9.
       -6     2     1     2     0   103 -3.4335286692e+01 -3.4713751492e+01  8.0664270652e+02  8.2568023396e+02  1.6938546664e+02  1.298521e-13 9.
       24     2     3     0     0     0 -3.6970782999e+01  4.8679096024e+01  1.0442916099e+02  1.4715602010e+02  8.3743366321e+01  7.432264e-14 9.
        5     1     3     0   101     0  7.1306069691e+01 -1.3965344532e+01  9.5512784172e+01  1.2010544685e+02  4.8000000000e+00 0. 9.
      -24     2     4     0     0     0 -8.1316712831e+01 -1.0161298158e+01  4.2093666744e+02  4.3631887744e+02  8.0441438620e+01  8.120921e-14 9.
       -5     1     4     0     0   103  4.6981426139e+01 -2.4552453334e+01  3.8570603908e+02  3.8936135652e+02  4.8000000000e+00 0. 9.
       -1     1     5     0     0   104  1.8470330902e+00 -1.1986773973e+01  6.2813743541e+01  6.3974757203e+01  3.3000000000e-01 0. 9.
        2     1     5     0   104     0 -3.8817816089e+01  6.0665869997e+01  4.1615417447e+01  8.3181262901e+01  3.3000000000e-01 0. 9.
        3     1     7     0   105     0 -8.7296075283e+00 -9.8492437044e+00  4.9873220461e+00  1.4083218039e+01  5.0000000000e-01 0. 9.
       -2     1     7     0     0   105 -7.2587105303e+01 -3.1205445358e-01  4.1594934540e+02  4.2223565940e+02  3.3000000000e-01 0. 9.
#pdf   21   21  1.615020e-01  6.642850e-03  1.762821e+02  4.015805e-01  1.096813e+01
</event>
<event>
    12  9999  1.000000e+00  1.871045e+02  7.881724e-03  1.065974e-01
       21    -1     0     0   101   102  0.0000000000e+00  0.0000000000e+00  2.5730384964e+02  2.5730384964e+02  0.0000000000e+00 0. 9.
       21    -1     0     0   103   101  0.0000000000e+00  0.0000000000e+00 -1.5087970216e+02  1.5087970216e+02  0.0000000000e+00 0. 9.
        6     2     1     2   103     0  3.4251300620e+01 -6.9919166097e+01 -1.0958971484e+01  1.8661542859e+02  1.6924354567e+02  4.675798e-14 9.
       -6     2     1     2     0   102 -3.4251300620e+01  6.9919166097e+01  1.1738311897e+02  2.2156812322e+02  1.7103156208e+02  4.145272e-14 9.
       24     2     3     0     0     0  1.6785347944e+01 -8.7982318843e+00  5.0803545626e+01  9.7854645460e+01  8.1457808711e+01  1.539629e-13 9.
        5     1     3     0   103     0  1.7465952675e+01 -6.1120934213e+01 -6.1762517110e+01  8.8760783129e+01  4.8000000000e+00 0. 9.
      -24     2     4     0     0     0 -3.5516476236e+01  6.8237953935e+01  1.5081302564e+02  1.8772989330e+02  8.1117850652e+01  2.643012e-14 9.
       -5     1     4     0     0   102  1.2651756169e+00  1.6812121626e+00 -3.3429906674e+01  3.3838229917e+01  4.8000000000e+00 0. 9.
       -3     1     5     0     0   104  2.3807906211e+01 -2.1967661767e+01  6.7854353724e+01  7.5192139755e+01  5.0000000000e-01 0. 9.
        2     1     5     0   104     0 -7.0225582662e+00  1.3169429883e+01 -1.7050808098e+01  2.2662505705e+01  3.3000000000e-01 0. 9.
        1     1     7     0   105     0  1.4317879981e+01  1.7322716805e+01  1.7847880111e+00  2.2547118949e+01  3.3000000000e-01 0. 9.
       -2     1     7     0     0   105 -4.9834356218e+01  5.0915237130e+01  1.4902823763e+02  1.6518277435e+02  3.3000000000e-01 0. 9.
#pdf   21   21  3.958521e-02  2.321226e-02  1.862934e+02  2.439266e+00  4.052106e+00
</event>
<event>
    12  9999  1.000000e+00  2.221939e+02  7.897237e-03  1.044021e-01
       21    -1     0     0   101   102  0.0000000000e+00  0.0000000000e+00  8.1191382207e+01  8.1191382207e+01  0.0000000000e+00 0. 9.
       21    -1     0     0   102   103  0.0000000000e+00  0.0000000000e+00 -6.0910552116e+02  6.0910552116e+02  0.0000000000e+00 0. 9.
        6     2     1     2   101     0 -1.3591241310e+02 -3.8509371522e+01 -2.7633999834e+02  3.5371127853e+02  1.6968417177e+02  6.861318e-14 9.
       -6     2     1     2     0   103  1.3591241310e+02  3.8509371522e+01 -2.5157414061e+02  3.3658562484e+02  1.7333545191e+02  1.130571e-13 9.
       24     2     3     0     0     0 -6.4318239318e+01 -5.2242691932e+01 -7.0454682234e+01  1.3524816220e+02  8.0386991240e+01  9.582442e-15 9.
        5     1     3     0   101     0 -7.1594173786e+01  1.3733320410e+01 -2.0588531610e+02  2.1846311633e+02  4.8000000000e+00 0. 9.
      -24     2     4     0     0     0  1.3452388746e+02  1.5645982310e+01 -2.6692959319e+02  3.0859468892e+02  7.5085293153e+01  4.919537e-14 9.
       -5     1     4     0     0   103  1.3885256468e+00  2.2863389212e+01  1.5355452578e+01  2.7990935918e+01  4.8000000000e+00 0. 9.
      -15     1     5     0     0     0 -8.3809195081e+00  1.0391656973e+01  1.1647144263e+01  1.7805600390e+01  1.7768200000e+00  1.537462e-01 9.
       16     1     5     0     0     0 -5.5937319810e+01 -6.2634348905e+01 -8.2101826498e+01  1.1744256181e+02  0.0000000000e+00 0. 9.
        1     1     7     0   104     0  1.0324013653e+02  1.9718264792e+01 -1.2555323052e+02  1.6374082677e+02  3.3000000000e-01 0. 9.
       -2     1     7     0     0   104  3.1283750924e+01 -4.0722824816e+00 -1.4137636267e+02  1.4485386215e+02  3.3000000000e-01 0. 9.
#pdf   21   21  1.249098e-02  9.370854e-02  2.207892e+02  6.822184e+00  8.840393e-01
</event>
<event>
    12  9999  1.000000e+00  1.699699e+02  7.873082e-03  1.078743e-01
       21    -1     0     0   101   102  0.0000000000e+00  0.0000000000e+00  7.3050122700e+02  7.3050122700e+02  0.0000000000e+00 0. 9.
       21    -1     0     0   102   103  0.0000000000e+00  0.0000000000e+00 -8.6659048811e+01  8.6659048811e+01  0.0000000000e+00 0. 9.
        6     2     1     2   101     0 -2.1237374414e+01  8.5411476292e+00  6.2094697487e+02  6.4313179820e+02  1.6588968319e+02  3.518784e-15 9.
       -6     2     1     2     0   103  2.1237374414e+01 -8.5411476292e+00  2.2895203325e+01  1.7402847761e+02  1.7099047754e+02  3.765169e-14 9.
       24     2     3     0     0     0 -2.6584295295e+01  1.1418153295e+01  6.2731790937e+02  6.3310705227e+02  8.0372142215e+01  1.879225e-13 9.
        5     1     3     0   101     0  5.3469208800e+00 -2.8770056660e+00 -6.3709345013e+00  1.0024745928e+01  4.8000000000e+00 0. 9.
      -24     2     4     0     0     0 -3.2799845420e+01 -5.2494543149e+01  2.3147936663e+01  1.0420709135e+02  8.0571607880e+01  1.500825e-13 9.
       -5     1     4     0     0   103  5.4037219834e+01  4.3953395520e+01 -2.5273333798e-01  6.9821386260e+01  4.8000000000e+00 0. 9.
       -3     1     5     0     0   104 -2.5167539786e+00  2.4101957340e+01  5.4561997137e+01  5.9703433149e+01  5.0000000000e-01 0. 9.
        4     1     5     0   104     0 -2.4067541316e+01 -1.2683804045e+01  5.7275591223e+02  5.7340361912e+02  1.5000000000e+00 0. 9.
       11     1     7     0     0     0  1.8720029189e+01 -7.3110150795e+00 -1.5639194969e+01  2.5465169425e+01  5.1100000000e-04 0. 9.
      -12     1     7     0     0     0 -5.1519874609e+01 -4.5183528070e+01  3.8787131632e+01  7.8741921927e+01  0.0000000000e+00 0. 9.
#pdf   21   21  1.123848e-01  1.333216e-02  1.674615e+02  7.080729e-01  6.472617e+00
</event>
<event>
    12  9999  1.000000e+00  3.276039e+02  7.932505e-03  9.976522e-02
       21    -1     0     0   101   102  0.0000000000e+00  0.0000000000e+00  8.6351763844e+02  8.6351763844e+02  0.0000000000e+00 0. 9.
       21    -1     0     0   102   103  0.0000000000e+00  0.0000000000e+00 -3.7673400362e+02  3.7673400362e+02  0.0000000000e+00 0. 9.
        6     2     1     2   101     0  2.6218027600e+01 -2.7682042565e+02  7.5092284071e+02  8.1911308753e+02  1.7246508180e+02  1.040616e-13 9.
       -6     2     1     2     0   103 -2.6218027600e+01  2.7682042565e+02 -2.6413920589e+02  4.2113855453e+02  1.7398628967e+02  2.098837e-13 9.
       24     2     3     0     0     0 -2.8263896062e+01 -1.8421964755e+02  3.5227017421e+02  4.0620853123e+02  7.8583515067e+01  2.810317e-14 9.
        5     1     3     0   101     0  5.4481923662e+01 -9.2600778099e+01  3.9865266650e+02  4.1290455631e+02  4.8000000000e+00 0. 9.
      -24     2     4     0     0     0 -2.0656796991e+01  8.2464651519e+01 -3.7325267111e+01  1.2235318499e+02  7.9686914237e+01  1.193235e-14 9.
       -5     1     4     0     0   103 -5.5612306091e+00  1.9435577413e+02 -2.2681393878e+02  2.9878536954e+02  4.8000000000e+00 0. 9.
       -3     1     5     0     0   104  1.4271589262e+01 -1.4013960861e+02  2.3883573341e+02  2.7728242951e+02  5.0000000000e-01 0. 9.
        4     1     5     0   104     0 -4.2535485324e+01 -4.4080038942e+01  1.1343444080e+02  1.2892610172e+02  1.5000000000e+00 0. 9.
       11     1     7     0     0     0  2.0370471695e+00  8.8481231624e+01 -1.4642310099e+01  8.9707720717e+01  5.1100000000e-04 0. 9.
      -12     1     7     0     0     0 -2.2693844161e+01 -6.0165801049e+00 -2.2682957012e+01  3.2645464275e+01  0.0000000000e+00 0. 9.
#pdf   21   21  1.328489e-01  5.795908e-02  3.272020e+02  5.084697e-01  1.556914e+00
</event>
<event>
    12  9999  1.000000e+00  2.776172e+02  7.917427e-03  1.016905e-01
       21    -1     0     0   101   102  0.0000000000e+00  0.0000000000e+00  1.2493263506e+03  1.2493263506e+03  0.0000000000e+00 0. 9.
       21    -1     0     0   102   103  0.0000000000e+00  0.0000000000e+00 -7.2143402406e+01  7.2143402406e+01  0.0000000000e+00 0. 9.
        6     2     1     2   101     0  2.1671798195e+02  2.2380620860e+01  8.3971561976e+02  8.8435083960e+02  1.7171636362e+02  2.923285e-13 9.
       -6     2     1     2     0   103 -2.1671798195e+02 -2.2380620860e+01  3.3746732845e+02  4.3711891342e+02  1.7239829122e+02  1.701025e-13 9.
       24     2     3     0     0     0  2.1105776445e+02  2.0418020554e+01  8.3015446876e+02  8.7208929522e+02  1.6254544391e+02  3.218657e-15 9.
        5     1     3     0   101     0  5.6602174949e+00  1.9626003063e+00  9.5611510042e+00  1.2261544380e+01  4.8000000000e+00 0. 9.
      -24     2     4     0     0     0 -5.3273508974e+01 -4.5119705396e+01  8.7080757858e+01  1.3720619872e+02  7.9803684150e+01  1.706559e-14 9.
       -5     1     4     0     0   103 -1.6344447297e+02  2.2739084536e+01  2.5038657059e+02  2.9991271471e+02  4.8000000000e+00 0. 9.
      -13     1     5     0     0     0  1.0397504310e+02 -2.4554374503e+01  1.6293850171e+02  1.9484017399e+02  1.0566000000e-01  7.016046e+05 9.
       14     1     5     0     0     0  1.0708272135e+02  4.4972395057e+01  6.6721596704e+02  6.7724912123e+02  0.0000000000e+00 0. 9.
        1     1     7     0   104     0 -4.7723590683e+01 -8.2870946371e+00  7.0736582220e+00  4.8952656576e+01  3.3000000000e-01 0. 9.
       -2     1     7     0     0   104 -5.5499182912e+00 -3.6832610759e+01  8.0007099636e+01  8.8253542142e+01  3.3000000000e-01 0. 9.
#pdf   21   21  1.922041e-01  1.109898e-02  2.774060e+02  2.727189e-01  7.496110e+00
</event>
<event>
    12  9999  1.000000e+00  1.802844e+02  7.878381e-03  1.070840e-01
       21    -1     0     0   101   102  0.0000000000e+00  0.0000000000e+00  4.5060862258e+01  4.5060862258e+01  0.0000000000e+00 0. 9.
       21    -1     0     0   102   103  0.0000000000e+00  0.0000000000e+00 -7.4477432473e+02  7.4477432473e+02  0.0000000000e+00 0. 9.
        6     2     1     2   101     0  5.1005516476e+01  2.1574259370e+01 -4.1878678931e+02  4.5569926269e+02  1.7091644666e+02  6.122280e-14 9.
       -6     2     1     2     0   103 -5.1005516476e+01 -2.1574259370e+01 -2.8092667316e+02  3.3413592430e+02  1.7222081417e+02  1.239325e-13 9.
       24     2     3     0     0     0 -3.2840719778e+01  3.4474522887e+01 -2.5250934258e+02  2.6896994677e+02  7.9478667410e+01  6.809584e-14 9.
        5     1     3     0   101     0  8.3846236254e+01 -1.2900263516e+01 -1.6627744673e+02  1.8672931592e+02  4.8000000000e+00 0. 9.
      -24     2     4     0     0     0 -1.0886309073e+01 -1.0162218547e+01 -4.3023105052e+01  9.2555848135e+01  8.0584210889e+01  3.413791e-14 9.
       -5     1     4     0     0   103 -4.0119207403e+01 -1.1412040823e+01 -2.3790356811e+02  2.4158007616e+02  4.8000000000e+00 0. 9.
       -1     1     5     0     0   104 -3.6998935684e+01 -1.3826251126e+01 -1.5658922621e+02  1.6149421391e+02  3.3000000000e-01 0. 9.
        2     1     5     0   104     0  4.1582159056e+00  4.8300774013e+01 -9.5920116373e+01  1.0747573286e+02  3.3000000000e-01 0. 9.
        3     1     7     0   105     0  1.8385602266e+01 -1.2375491155e+01 -5.6147330069e+01  6.0365187201e+01  5.0000000000e-01 0. 9.
       -4     1     7     0     0   105 -2.9271911339e+01  2.2132726080e+00  1.3124225016e+01  3.2190660934e+01  1.5000000000e+00 0. 9.
#pdf   21   21  6.932440e-03  1.145807e-01  1.796648e+02  1.064232e+01  6.833918e-01
</event>
<event>
    12  9999  1.000000e+00  2.178196e+02  7.895440e-03  1.046514e-01
        1    -1     0     0   101     0  0.0000000000e+00  0.0000000000e+00  1.1720392081e+03  1.1720392081e+03  0.0000000000e+00 0. 9.
       -1    -1     0     0     0   102  0.0000000000e+00  0.0000000000e+00 -4.4382199221e+01  4.4382199221e+01  0.0000000000e+00 0. 9.
        6     2     1     2   101     0 -9.8368977541e+00 -1.3342150980e+02  3.8406920799e+02  4.4165372108e+02  1.7219404456e+02  5.683918e-13 9.
       -6     2     1     2     0   102  9.8368977541e+00  1.3342150980e+02  7.4358780091e+02  7.7476768627e+02  1.7159279176e+02  7.478538e-14 9.
       24     2     3     0     0     0  8.3552343587e+00 -2.3321471719e+01  7.5558664070e+01  1.1354586112e+02  8.1054610462e+01  4.291029e-14 9.
        5     1     3     0   101     0 -1.8192132113e+01 -1.1010003808e+02  3.0851054392e+02  3.2810785996e+02  4.8000000000e+00 0. 9.
      -24     2     4     0     0     0  3.6112306689e+01  1.5648594206e+02  6.4133770519e+02  6.6659889582e+02  8.5135697913e+01  1.321834e-13 9.
       -5     1     4     0     0   102 -2.6275408935e+01 -2.3064432267e+01  1.0225009572e+02  1.0816879044e+02  4.8000000000e+00 0. 9.
       -3     1     5     0     0   103 -3.1432267931e+01 -1.5666689467e+01  1.0099128110e+01  3.6546887894e+01  5.0000000000e-01 0. 9.
        4     1     5     0   103     0  3.9787502290e+01 -7.6547822525e+00  6.5459535961e+01  7.6998973227e+01  1.5000000000e+00 0. 9.
        1     1     7     0   104     0  2.1820247071e+01  7.4854375373e+00  1.8275002690e+02  1.8420053255e+02  3.3000000000e-01 0. 9.
       -2     1     7     0     0   104  1.4292059618e+01  1.4900050453e+02  4.5858767828e+02  4.8239836328e+02  3.3000000000e-01 0. 9.
#pdf    1   -1  1.803137e-01  6.828031e-03  2.175825e+02  2.417560e-01  6.708166e-01
</event>
<event>
    12  9999  1.000000e+00  2.082688e+02  7.891389e-03  1.052179e-01
       21    -1     0     0   101   102  0.0000000000e+00  0.0000000000e+00  1.0990117691e+03  1.0990117691e+03  0.0000000000e+00 0. 9.
       21    -1     0     0   102   103  0.0000000000e+00  0.0000000000e+00 -4.2382483213e+01  4.2382483213e+01  0.0000000000e+00 0. 9.
        6     2     1     2   101     0  8.0572032406e+01 -8.3500222960e+01  3.6633014950e+02  4.1871865143e+02  1.6632315227e+02  2.929759e-13 9.
       -6     2     1     2     0   103 -8.0572032406e+01  8.3500222960e+01  6.9029913635e+02  7.2267560085e+02  1.7967466927e+02  1.789791e-14 9.
       24     2     3     0     0     0  6.0944821491e+00 -4.9136081298e+01  2.9571169774e+02  3.1037749834e+02  8.0232699660e+01  5.670200e-14 9.
        5     1     3     0   101     0  7.4477550257e+01 -3.4364141662e+01  7.0618451762e+01  1.0834115309e+02  4.8000000000e+00 0. 9.
      -24     2     4     0     0     0 -3.8094981686e+01 -2.1742256802e+01  4.1256409038e+02  4.2260881638e+02  8.0406029913e+01  1.283371e-13 9.
       -5     1     4     0     0   103 -4.2477050720e+01  1.0524247976e+02  2.7773504597e+02  3.0006678448e+02  4.8000000000e+00 0. 9.
       -1     1     5     0     0   104  9.1999684682e+00 -6.9065932924e+01  1.8183020868e+02  1.9472307567e+02  3.3000000000e-01 0. 9.
        2     1     5     0   104     0 -3.1054863191e+00  1.9929851626e+01  1.1388148906e+02  1.1565442267e+02  3.3000000000e-01 0. 9.
        1     1     7     0   105     0  5.7856737383e-01  3.3804320898e+00 -2.9544999398e+00  4.5387257258e+00  3.3000000000e-01 0. 9.
       -2     1     7     0     0   105 -3.8673549060e+01 -2.5122688892e+01  4.1551859032e+02  4.1807009065e+02  3.3000000000e-01 0. 9.
#pdf   21   21  1.690787e-01  6.520382e-03  2.027992e+02  3.633932e-01  1.116303e+01
</event>
<event>
    12  9999  1.000000e+00  2.245085e+02  7.898175e-03  1.042727e-01
       21    -1     0     0   101   102  0.0000000000e+00  0.0000000000e+00  7.0622878497e+01  7.0622878497e+01  0.0000000000e+00 0. 9.
       21    -1     0     0   103   101  0.0000000000e+00  0.0000000000e+00 -9.5139179952e+02  9.5139179952e+02  0.0000000000e+00 0. 9.
        6     2     1     2   103     0  1.3272691530e+02  5.8299565075e+01 -1.8329775820e+02  2.8894828699e+02  1.6993460819e+02  2.693761e-13 9.
       -6     2     1     2     0   102 -1.3272691530e+02 -5.8299565075e+01 -6.9747116282e+02  7.3306639103e+02  1.7293072991e+02  1.797524e-14 9.
       24     2     3     0     0     0  7.1371009618e+01 -2.1370761713e+01 -4.8160252911e+01  1.2043391530e+02  8.1451749661e+01  7.461759e-14 9.
        5     1     3     0   103     0  6.1355905681e+01  7.9670326789e+01 -1.3513750529e+02  1.6851437170e+02  4.8000000000e+00 0. 9.
      -24     2     4     0     0     0 -3.9297879388e+01  3.1044151462e+01 -2.4143085778e+02  2.5903360286e+02  7.9381897533e+01  5.369010e-14 9.
       -5     1     4     0     0   102 -9.3429035910e+01 -8.9343716537e+01 -4.5604030504e+02  4.7403278817e+02  4.8000000000e+00 0. 9.
      -15     1     5     0     0     0  3.1052520833e+01  6.0875320345e+00  1.9358054004e+01  3.7137695681e+01  1.7768200000e+00  1.546817e-01 9.
       16     1     5     0     0     0  4.0318488785e+01 -2.7458293748e+01 -6.7518306915e+01  8.3296219615e+01  0.0000000000e+00 0. 9.
       13     1     7     0     0     0 -1.0998991810e+01  4.9624324442e+01 -1.9534836919e+02  2.0185278771e+02  1.0566000000e-01  2.274703e+05 9.
      -14     1     7     0     0     0 -2.8298887578e+01 -1.8580172981e+01 -4.6082488593e+01  5.7180815149e+01  0.0000000000e+00 0. 9.
#pdf   21   21  1.086506e-02  1.463680e-01  2.233675e+02  7.618104e+00  4.572688e-01
</event>
<event>
    12  9999  1.000000e+00  2.059561e+02  7.890381e-03  1.053599e-01
       21    -1     0     0   101   102  0.0000000000e+00  0.0000000000e+00  5.8405616468e+02  5.8405616468e+02  0.0000000000e+00 0. 9.
       21    -1     0     0   102   103  0.0000000000e+00  0.0000000000e+00 -1.3565522803e+02  1.3565522803e+02  0.0000000000e+00 0. 9.
        6     2     1     2   101     0 -8.1816491253e+01 -8.0311465156e+01  4.6965485269e+02  5.1294277061e+02  1.7143726429e+02  1.875937e-14 9.
       -6     2     1     2     0   103  8.1816491253e+01  8.0311465156e+01 -2.1253916033e+01  2.0676862210e+02  1.7075615497e+02  6.154460e-13 9.
       24     2     3     0     0     0  1.6909211829e+01 -2.5643813884e+01  1.4426236706e+02  1.6850318774e+02  8.1474947638e+01  3.209150e-14 9.
        5     1     3     0   101     0 -9.8725703082e+01 -5.4667651272e+01  3.2539248563e+02  3.4443958287e+02  4.8000000000e+00 0. 9.
      -24     2     4     0     0     0  2.5022159245e+01 -2.1334711083e+01  1.4850915739e+00  8.8035123207e+01  8.1649856526e+01  3.259300e-14 9.
       -5     1     4     0     0   103  5.6794332008e+01  1.0164617624e+02 -2.2739007607e+01  1.1873349889e+02  4.8000000000e+00 0. 9.
       -3     1     5     0     0   104 -2.6429736378e+01 -1.0494965947e+01  1.6837856325e+01  3.3052060161e+01  5.0000000000e-01 0. 9.
        4     1     5     0   104     0  4.3338948208e+01 -1.5148847936e+01  1.2742451073e+02  1.3545112757e+02  1.5000000000e+00 0. 9.
        3     1     7     0   105     0  3.5745276026e+01 -4.3848211487e+00  3.4177082431e+01  4.9651529465e+01  5.0000000000e-01 0. 9.
       -4     1     7     0     0   105 -1.0723116781e+01 -1.6949889935e+01 -3.2691990857e+01  3.8383593742e+01  1.5000000000e+00 0. 9.
#pdf   21   21  8.985479e-02  2.087004e-02  2.056734e+02  9.415217e-01  4.442435e+00
</event>
<event>
    12  9999  1.000000e+00  2.073528e+02  7.890991e-03  1.052739e-01
       21    -1     0     0   101   102  0.0000000000e+00  0.0000000000e+00  8.1110599442e+02  8.1110599442e+02  0.0000000000e+00 0. 9.
       21    -1     0     0   103   101  0.0000000000e+00  0.0000000000e+00 -5.7120483091e+01  5.7120483091e+01  0.0000000000e+00 0. 9.
        6     2     1     2   103     0 -1.1323101697e+02  2.5601965171e+01  2.6181107700e+02  3.3445178970e+02  1.7273168721e+02  4.554058e-13 9.
       -6     2     1     2     0   102  1.1323101697e+02 -2.5601965171e+01  4.9217443433e+02  5.3377468782e+02  1.7088891046e+02  6.177237e-14 9.
       24     2     3     0     0     0 -3.9861785264e+00 -8.5131890547e+00  4.8053697331e+01  9.1936767815e+01  7.7812900229e+01  1.418616e-14 9.
        5     1     3     0   103     0 -1.0924483845e+02  3.4115154226e+01  2.1375737967e+02  2.4251502188e+02  4.8000000000e+00 0. 9.
      -24     2     4     0     0     0  9.0656437068e+01  1.4127757294e+01  1.7717475121e+02  2.1544168156e+02  8.1277565044e+01  3.869619e-15 9.
       -5     1     4     0     0   102  2.2574579906e+01 -3.9729722465e+01  3.1499968312e+02  3.1833300626e+02  4.8000000000e+00 0. 9.
      -15     1     5     0     0     0 -2.5785029703e+01  2.2862935705e+01  5.8338645030e+00  3.4996751995e+01  1.7768200000e+00  6.194124e-02 9.
       16     1     5     0     0     0  2.1798851177e+01 -3.1376124760e+01  4.2219832828e+01  5.6940015820e+01  0.0000000000e+00 0. 9.
        3     1     7     0   104     0  2.7855777929e+01  3.9841036071e+01  1.0844627451e+02  1.1884484412e+02  5.0000000000e-01 0. 9.
       -4     1     7     0     0   104  6.2800659138e+01 -2.5713278777e+01  6.8728476699e+01  9.6596837438e+01  1.5000000000e+00 0. 9.
#pdf   21   21  1.247855e-01  8.787767e-03  2.065908e+02  5.929339e-01  8.960855e+00
</event>
<event>
    12  9999  1.000000e+00  1.838819e+02  7.880160e-03  1.068245e-01
       21    -1     0     0   101   102  0.0000000000e+00  0.0000000000e+00  1.0244624516e+02  1.0244624516e+02  0.0000000000e+00 0. 9.
       21    -1     0     0   102   103  0.0000000000e+00  0.0000000000e+00 -5.3235705947e+02  5.3235705947e+02  0.0000000000e+00 0. 9.
        6     2     1     2   101     0  1.7173610625e+01  7.2436456141e+01 -4.1085957045e+02  4.5026707218e+02  1.6850185926e+02  1.742906e-13 9.
       -6     2     1     2     0   103 -1.7173610625e+01 -7.2436456141e+01 -1.9051243858e+01  1.8453623246e+02  1.6777573757e+02  1.140506e-13 9.
       24     2     3     0     0     0 -5.6024997889e-01  9.2955344239e+01 -4.0325128771e+02  4.2169364839e+02  8.1073560087e+01  3.027638e-14 9.
        5     1     3     0   101     0  1.7733860604e+01 -2.0518888098e+01 -7.6082827398e+00  2.8573423788e+01  4.8000000000e+00 0. 9.
      -24     2     4     0     0     0 -7.0812330088e+01 -6.6690004374e+01 -2.4031526605e+01  1.3014894397e+02  8.3061968244e+01  5.753535e-14 9.
       -5     1     4     0     0   103  5.3638719462e+01 -5.7464517665e+00  4.9802827473e+00  5.4387288494e+01  4.8000000000e+00 0. 9.
      -11     1     5     0     0     0 -3.4554515676e+01  2.3742242345e+01 -1.9906707442e+02  2.0343404028e+02  5.1100000000e-04 0. 9.
       12     1     5     0     0     0  3.3994265697e+01  6.9213101894e+01 -2.0418421329e+02  2.1825960811e+02  0.0000000000e+00 0. 9.
        1     1     7     0   104     0  1.7365647710e+01 -1.5894857028e+01 -1.5155217077e+01  2.8000030446e+01  3.3000000000e-01 0. 9.
       -2     1     7     0     0   104 -8.8177977797e+01 -5.0795147346e+01 -8.8763095277e+00  1.0214891352e+02  3.3000000000e-01 0. 9.
#pdf   21   21  1.576096e-02  8.190109e-02  1.835502e+02  5.650768e+00  1.072748e+00
</event>
<event>
    12  9999  1.000000e+00  1.729455e+02  7.874643e-03  1.076340e-01
       21    -1     0     0   101   102  0.0000000000e+00  0.0000000000e+00  2.9049969859e+02  2.9049969859e+02  0.0000000000e+00 0. 9.
       21    -1     0     0   103   101  0.0000000000e+00  0.0000000000e+00 -1.7589165910e+02  1.7589165910e+02  0.0000000000e+00 0. 9.
        6     2     1     2   103     0  2.4434303920e+01  1.6995503847e+01 -9.3033802966e+01  1.9555365084e+02  1.6941091908e+02  6.752238e-14 9.
       -6     2     1     2     0   102 -2.4434303920e+01 -1.6995503847e+01  2.0764184246e+02  2.7083770685e+02  1.7132438925e+02  7.317438e-14 9.
       24     2     3     0     0     0  3.5360816508e+01 -1.1466977954e+01 -1.2378112097e+02  1.5198830783e+02  7.9980003002e+01  1.249563e-13 9.
        5     1     3     0   103     0 -1.0926512588e+01  2.8462481801e+01  3.0747318004e+01  4.3565343015e+01  4.8000000000e+00 0. 9.
      -24     2     4     0     0     0 -6.5519204661e+01  3.3553126733e+01  1.3229401167e+02  1.7112076382e+02  7.9762345712e+01  4.778763e-14 9.
       -5     1     4     0     0   102  4.1084900741e+01 -5.0548630579e+01  7.5347830787e+01  9.9716943027e+01  4.8000000000e+00 0. 9.
      -15     1     5     0     0     0  3.5593758532e+01  1.6531774381e+01 -1.9205170641e+01  4.3728833500e+01  1.7768200000e+00  1.059022e-01 9.
       16     1     5     0     0     0 -2.3294202433e-01 -2.7998752335e+01 -1.0457595033e+02  1.0825947433e+02  0.0000000000e+00 0. 9.
       15     1     7     0     0     0 -6.2595422605e+01 -5.7365950253e+00  1.0758702094e+02  1.2461628954e+02  1.7768200000e+00  3.924175e-02 9.
      -16     1     7     0     0     0 -2.9237820561e+00  3.9289721758e+01  2.4706990724e+01  4.6504474279e+01  0.0000000000e+00 0. 9.
#pdf   21   21  4.469226e-02  2.706026e-02  1.720056e+02  2.161153e+00  3.533217e+00
</event>
<event>
    12  9999  1.000000e+00  3.013127e+02  7.924879e-03  1.007287e-01
       21    -1     0     0   101   102  0.0000000000e+00  0.0000000000e+00  1.8054029887e+03  1.8054029887e+03  0.0000000000e+00 0. 9.
       21    -1     0     0   102   103  0.0000000000e+00  0.0000000000e+00 -1.5122286370e+02  1.5122286370e+02  0.0000000000e+00 0. 9.
        6     2     1     2   101     0 -1.9252703907e+02 -1.5732279235e+02  1.6259137877e+03  1.6535098849e+03  1.6935811944e+02  2.511079e-13 9.
       -6     2     1     2     0   103  1.9252703907e+02  1.5732279235e+02  2.8266337258e+01  3.0311596747e+02  1.7106484779e+02  3.443852e-14 9.
       24     2     3     0     0     0 -5.8146618542e+01 -1.2794114665e+02  9.4727774844e+02  9.6105678734e+02  8.0901480472e+01  3.159473e-14 9.
        5     1     3     0   101     0 -1.3438042052e+02 -2.9381645702e+01  6.7863603926e+02  6.9245309755e+02  4.8000000000e+00 0. 9.
      -24     2     4     0     0     0  1.0596473025e+02  1.6641500238e+02  2.0561506316e+01  2.1560536234e+02  8.4501003860e+01  4.364785e-13 9.
       -5     1     4     0     0   103  8.6562308820e+01 -9.0922100252e+00  7.7048309413e+00  8.7510605135e+01  4.8000000000e+00 0. 9.
      -13     1     5     0     0     0 -5.6348814703e+00 -5.7028241598e-01  2.6230900844e+02  2.6237016634e+02  1.0566000000e-01  1.076753e+06 9.
       14     1     5     0     0     0 -5.2511737072e+01 -1.2737086423e+02  6.8496874000e+02  6.9868662100e+02  0.0000000000e+00 0. 9.
        3     1     7     0   104     0  6.5443645898e+01  1.0058258418e+02 -2.9400833886e+01  1.2354912409e+02  5.0000000000e-01 0. 9.
       -4     1     7     0     0   104  4.0521084349e+01  6.5832418196e+01  4.9962340202e+01  9.2056238251e+01  1.5000000000e+00 0. 9.
#pdf   21   21  2.777543e-01  2.326506e-02  3.008310e+02  1.149495e-01  3.990425e+00
</event>
<event>
    12  9999  1.000000e+00  1.734876e+02  7.874924e-03  1.075924e-01
        2    -1     0     0   101     0  0.0000000000e+00  0.0000000000e+00  5.2700374243e+02  5.2700374243e+02  0.0000000000e+00 0. 9.
       -2    -1     0     0     0   102  0.0000000000e+00  0.0000000000e+00 -9.9492572058e+01  9.9492572058e+01  0.0000000000e+00 0. 9.
        6     2     1     2   101     0 -1.1038464447e+01 -1.2691364974e+01  9.9406324835e+00  1.7465849647e+02  1.7356225331e+02  4.123484e-13 9.
       -6     2     1     2     0   102  1.1038464447e+01  1.2691364974e+01  4.1757053789e+02  4.5183781802e+02  1.7178283160e+02  1.235486e-13 9.
       24     2     3     0     0     0 -5.9399054557e+01 -8.8356494185e-01 -3.6110802539e+01  1.0667360488e+02  8.0908834802e+01  5.057375e-15 9.
        5     1     3     0   101     0  4.8360590110e+01 -1.1807800032e+01  4.6051435023e+01  6.7984891594e+01  4.8000000000e+00 0. 9.
      -24     2     4     0     0     0  5.2815696551e+01  2.6983528768e+01  3.8179174856e+02  3.9480480272e+02  8.1168247192e+01  9.182524e-14 9.
       -5     1     4     0     0   102 -4.1777232104e+01 -1.4292163795e+01  3.5778789327e+01  5.7033015297e+01  4.8000000000e+00 0. 9.
       -3     1     5     0     0   103 -4.8666094815e+01  1.6692198057e+01  1.3282200657e+01  5.3138358225e+01  5.0000000000e-01 0. 9.
        4     1     5     0   103     0 -1.0732959741e+01 -1.7575762998e+01 -4.9393003196e+01  5.3535246656e+01  1.5000000000e+00 0. 9.
        1     1     7     0   104     0  6.0099036156e+01  2.6843914371e+00  1.4978070488e+02  1.6141086877e+02  3.3000000000e-01 0. 9.
       -2     1     7     0     0   104 -7.2833396057e+00  2.4299137331e+01  2.3201104369e+02  2.3339393395e+02  3.3000000000e-01 0. 9.
#pdf    2   -2  8.107750e-02  1.530655e-02  1.726043e+02  5.971084e-01  3.990493e-01
</event>
<event>
    12  9999  1.000000e+00  2.081935e+02  7.891356e-03  1.052225e-01
       21    -1     0     0   101   102  0.0000000000e+00  0.0000000000e+00  2.6382671161e+02  2.6382671161e+02  0.0000000000e+00 0. 9.
       21    -1     0     0   102   103  0.0000000000e+00  0.0000000000e+00 -1.8116555458e+02  1.8116555458e+02  0.0000000000e+00 0. 9.
        6     2     1     2   101     0 -3.4944892477e+01  1.1335337501e+02  1.0909225922e+02  2.3437209749e+02  1.7017351711e+02  2.811912e-13 9.
       -6     2     1     2     0   103  3.4944892477e+01 -1.1335337501e+02 -2.6431102185e+01  2.1062016870e+02  1.7202360060e+02  7.461052e-14 9.
       24     2     3     0     0     0 -4.1440549591e+01  1.3991255942e+02  1.1718713227e+02  2.0545582512e+02  8.4772806202e+01  1.716568e-13 9.
        5     1     3     0   101     0  6.4956571132e+00 -2.6559184414e+01 -8.0948730545e+00  2.8916272371e+01  4.8000000000e+00 0. 9.
      -24     2     4     0     0     0  8.6567586304e+01 -5.4821057989e+01 -1.5075273745e+01  1.3160795766e+02  8.1204034650e+01  1.038428e-13 9.
       -5     1     4     0     0   103 -5.1622693827e+01 -5.8532317016e+01 -1.1355828441e+01  7.9012211036e+01  4.8000000000e+00 0. 9.
       -3     1     5     0     0   104  2.0202350420e+01  6.7509015997e+01  3.0543992491e+01  7.6803565547e+01  5.0000000000e-01 0. 9.
        4     1     5     0   104     0 -6.1642900011e+01  7.2403543422e+01  8.6643139780e+01  1.2865225957e+02  1.5000000000e+00 0. 9.
       13     1     7     0     0     0  6.3470773645e+01 -7.6196806135e+01 -9.2117099017e+00  9.9595979516e+01  1.0566000000e-01  4.289312e+05 9.
      -14     1     7     0     0     0  2.3096812659e+01  2.1375748146e+01 -5.8635638430e+00  3.2011978145e+01  0.0000000000e+00 0. 9.
#pdf   21   21  4.058872e-02  2.787162e-02  2.074347e+02  2.364510e+00  3.417436e+00
</event>
<event>
    12  9999  1.000000e+00  2.027672e+02  7.888972e-03  1.055591e-01
       21    -1     0     0   101   102  0.0000000000e+00  0.0000000000e+00  1.1324538569e+03  1.1324538569e+03  0.0000000000e+00 0. 9.
       21    -1     0     0   102   103  0.0000000000e+00  0.0000000000e+00 -9.0152726872e+01  9.0152726872e+01  0.0000000000e+00 0. 9.
        6     2     1     2   101     0 -1.1063508977e+02  3.2220071892e+00  9.9336453597e+02  1.0138040312e+03  1.6963197779e+02  7.653814e-14 9.
       -6     2     1     2     0   103  1.1063508977e+02 -3.2220071892e+00  4.8936594075e+01  2.0880255261e+02  1.7015643190e+02  8.236848e-14 9.
       24     2     3     0     0     0 -1.3452126031e+02 -3.4951421500e+00  6.0294994248e+02  6.2257230438e+02  7.7067863316e+01  7.859494e-14 9.
        5     1     3     0   101     0  2.3886170540e+01  6.7171493392e+00  3.9041459349e+02  3.9123172680e+02  4.8000000000e+00 0. 9.
      -24     2     4     0     0     0  3.1789083556e+00 -2.3798832301e+01 -1.0487287168e+01  8.4205304173e+01  8.0025372111e+01  5.053368e-14 9.
       -5     1     4     0     0   103  1.0745618142e+02  2.0576825112e+01  5.9423881243e+01  1.2459724844e+02  4.8000000000e+00 0. 9.
       -3     1     5     0     0   104 -9.0305010328e+01  3.3086508141e+01  4.1779658990e+02  4.2872363177e+02  5.0000000000e-01 0. 9.
        4     1     5     0   104     0 -4.4216249984e+01 -3.6581650291e+01  1.8515335258e+02  1.9384867261e+02  1.5000000000e+00 0. 9.
       11     1     7     0     0     0  2.1722015112e+01  2.1777786491e+01  7.7660402244e+00  3.1724269983e+01  5.1100000000e-04 0. 9.
      -12     1     7     0     0     0 -1.8543106756e+01 -4.5576618792e+01 -1.8253327393e+01  5.2481034189e+01  0.0000000000e+00 0. 9.
#pdf   21   21  1.742237e-01  1.386965e-02  2.025476e+02  3.446637e-01  6.271658e+00
</event>
<event>
    12  9999  1.000000e+00  2.557102e+02  7.909963e-03  1.026746e-01
       21    -1     0     0   101   102  0.0000000000e+00  0.0000000000e+00  1.8366012737e+03  1.8366012737e+03  0.0000000000e+00 0. 9.
       21    -1     0     0   102   103  0.0000000000e+00  0.0000000000e+00 -3.9416306546e+01  3.9416306546e+01  0.0000000000e+00 0. 9.
        6     2     1     2   101     0 -1.3954850514e+02 -1.3020291778e+02  1.1913937951e+03  1.2185947173e+03  1.7066729320e+02  1.018192e-13 9.
       -6     2     1     2     0   103  1.3954850514e+02  1.3020291778e+02  6.0579117203e+02  6.5742286291e+02  1.6969175431e+02  9.162951e-14 9.
       24     2     3     0     0     0 -1.3511922365e+02 -7.9552151941e+01  1.0987336090e+03  1.1127926913e+03  8.0661520222e+01  1.122455e-13 9.
        5     1     3     0   101     0 -4.4292814944e+00 -5.0650765843e+01  9.2660186123e+01  1.0580202601e+02  4.8000000000e+00 0. 9.
      -24     2     4     0     0     0  1.0402562914e+02  1.5069785397e+02  5.6543349898e+02  5.9968467015e+02  7.9846647658e+01  1.826977e-13 9.
       -5     1     4     0     0   103  3.5522876004e+01 -2.0494936185e+01  4.0357673056e+01  5.7738192761e+01  4.8000000000e+00 0. 9.
       -1     1     5     0     0   104 -8.8475327050e+01 -9.1617662318e+01  8.4181043965e+02  8.5139098230e+02  3.3000000000e-01 0. 9.
        2     1     5     0   104     0 -4.6643896597e+01  1.2065510378e+01  2.5692316930e+02  2.6140170897e+02  3.3000000000e-01 0. 9.
        1     1     7     0   105     0  9.6082518142e+00  1.8518729884e+01  1.8296619220e+02  1.8415210629e+02  3.3000000000e-01 0. 9.
       -2     1     7     0     0   105  9.4417377322e+01  1.3217912408e+02  3.8246730677e+02  4.1553256387e+02  3.3000000000e-01 0. 9.
#pdf   21   21  2.825540e-01  6.064047e-03  2.553857e+02  1.137337e-01  1.183390e+01
</event>
<event>
    12  9999  1.000000e+00  1.838618e+02  7.880150e-03  1.068260e-01
       21    -1     0     0   101   102  0.0000000000e+00  0.0000000000e+00  2.2987020437e+02  2.2987020437e+02  0.0000000000e+00 0. 9.
       21    -1     0     0   103   101  0.0000000000e+00  0.0000000000e+00 -3.0691357521e+02  3.0691357521e+02  0.0000000000e+00 0. 9.
        6     2     1     2   103     0  2.0390806148e+01 -6.8147324468e+01 -2.3223576765e+02  2.9632173496e+02  1.6974473783e+02  1.194033e-13 9.
       -6     2     1     2     0   102 -2.0390806148e+01  6.8147324468e+01  1.5519239682e+02  2.4046204463e+02  1.6934424133e+02  1.233029e-13 9.
       24     2     3     0     0     0 -3.9401444721e+01 -6.8455345479e+01 -1.9126008930e+02  2.2367702174e+02  8.4925733002e+01  4.690017e-14 9.
        5     1     3     0   103     0  5.9792250870e+01  3.0802101117e-01 -4.0975678352e+01  7.2644713210e+01  4.8000000000e+00 0. 9.
      -24     2     4     0     0     0 -4.0771345734e+01 -7.7113819593e+00  1.2926506440e+02  1.5760568518e+02  8.0052027350e+01  1.017242e-13 9.
       -5     1     4     0     0   102  2.0380539586e+01  7.5858706427e+01  2.5927332417e+01  8.2856359448e+01  4.8000000000e+00 0. 9.
       -3     1     5     0     0   104 -1.1070883169e+01  1.5562814439e+01 -9.2794290062e+00  2.1239666902e+01  5.0000000000e-01 0. 9.
        4     1     5     0   104     0 -2.8330561552e+01 -8.4018159919e+01 -1.8198066030e+02  2.0243735484e+02  1.5000000000e+00 0. 9.
        3     1     7     0   105     0 -3.8267610379e+01  2.8422434600e+01  1.0083545353e+02  1.1153601876e+02  5.0000000000e-01 0. 9.
       -4     1     7     0     0   105 -2.5037353551e+00 -3.6133816560e+01  2.8429610871e+01  4.6069666421e+01  1.5000000000e+00 0. 9.
#pdf   21   21  3.536465e-02  4.721747e-02  1.836772e+02  2.732027e+00  2.032031e+00
</event>
<event>
    12  9999  1.000000e+00  3.200696e+02  7.930382e-03  1.000313e-01
       21    -1     0     0   101   102  0.0000000000e+00  0.0000000000e+00  4.0989763321e+01  4.0989763321e+01  0.0000000000e+00 0. 9.
       21    -1     0     0   103   101  0.0000000000e+00  0.0000000000e+00 -2.4993078594e+03  2.4993078594e+03  0.0000000000e+00 0. 9.
        6     2     1     2   103     0  2.7030554248e+02 -1.4878830328e+01 -1.2255922636e+03  1.2667693950e+03  1.7129459291e+02  1.799718e-13 9.
       -6     2     1     2     0   102 -2.7030554248e+02  1.4878830328e+01 -1.2327258325e+03  1.2735282278e+03  1.7021957268e+02  1.437276e-13 9.
       24     2     3     0     0     0  1.9090199736e+02 -5.5927283789e+01 -1.0237040387e+03  1.0459260254e+03  8.0124017648e+01  1.084293e-14 9.
        5     1     3     0   103     0  7.9403545111e+01  4.1048453461e+01 -2.0188822492e+02  2.2084336954e+02  4.8000000000e+00 0. 9.
      -24     2     4     0     0     0 -2.6010991955e+02  3.3065962523e+01 -9.1698627205e+02  9.5706459235e+02  7.9738840526e+01  7.208031e-14 9.
       -5     1     4     0     0   102 -1.0195622928e+01 -1.8187132195e+01 -3.1573956048e+02  3.1646363544e+02  4.8000000000e+00 0. 9.
       -1     1     5     0     0   104  1.3750927321e+01 -3.2566466670e+01 -1.9471549928e+02  1.9789870468e+02  3.3000000000e-01 0. 9.
        2     1     5     0   104     0  1.7715107004e+02 -2.3360817119e+01 -8.2898853938e+02  8.4802732074e+02  3.3000000000e-01 0. 9.
        3     1     7     0   105     0 -1.6924103028e+02  5.5375386199e+01 -6.5883438741e+02  6.8247487848e+02  5.0000000000e-01 0. 9.
       -4     1     7     0     0   105 -9.0868889266e+01 -2.2309423676e+01 -2.5815188464e+02  2.7458971387e+02  1.5000000000e+00 0. 9.
#pdf   21   21  6.306117e-03  3.845089e-01  3.197830e+02  1.156158e+01  3.581483e-02
</event>
<event>
    12  9999  1.000000e+00  1.943027e+02  7.885126e-03  1.061073e-01
       21    -1     0     0   101   102  0.0000000000e+00  0.0000000000e+00  1.5075693220e+02  1.5075693220e+02  0.0000000000e+00 0. 9.
       21    -1     0     0   103   101  0.0000000000e+00  0.0000000000e+00 -2.6035121360e+02  2.6035121360e+02  0.0000000000e+00 0. 9.
        6     2     1     2   103     0  7.5464454073e+01 -5.0495041686e+01 -1.4426079485e+01  1.9392198831e+02  1.7074247484e+02  4.055607e-14 9.
       -6     2     1     2     0   102 -7.5464454073e+01  5.0495041686e+01 -9.5168201909e+01  2.1718615749e+02  1.7282420921e+02  1.523441e-13 9.
       24     2     3     0     0     0  1.1108790770e+01 -3.1933163715e+01 -6.5642023093e+01  1.0946899788e+02  8.0817412252e+01  1.101299e-13 9.
        5     1     3     0   103     0  6.4355663303e+01 -1.8561877971e+01  5.1215943608e+01  8.4452990430e+01  4.8000000000e+00 0. 9.
      -24     2     4     0     0     0 -7.4519012428e+01  6.7821013565e+01 -1.2438527033e+01  1.3252021235e+02  8.5171102100e+01  5.505655e-14 9.
       -5     1     4     0     0   102 -9.4544164500e-01 -1.7325971879e+01 -8.2729674876e+01  8.4665945140e+01  4.8000000000e+00 0. 9.
      -11     1     5     0     0     0 -1.0179848951e+01  2.2458727606e+01 -3.6874716424e+01  4.4359536539e+01  5.1100000000e-04 0. 9.
       12     1     5     0     0     0  2.1288639721e+01 -5.4391891321e+01 -2.8767306668e+01  6.5109461337e+01  0.0000000000e+00 0. 9.
        3     1     7     0   104     0  1.5681241059e+01  1.3127610589e+01  1.2687543727e+01  2.4071959761e+01  5.0000000000e-01 0. 9.
       -4     1     7     0     0   104 -9.0200253487e+01  5.4693402976e+01 -2.5126070761e+01  1.0844825259e+02  1.5000000000e+00 0. 9.
#pdf   21   21  2.319337e-02  4.005403e-02  1.933847e+02  4.051492e+00  2.405723e+00
</event>
<event>
    12  9999  1.000000e+00  3.287864e+02  7.932833e-03  9.972414e-02
       21    -1     0     0   101   102  0.0000000000e+00  0.0000000000e+00  3.1737624447e+01  3.1737624447e+01  0.0000000000e+00 0. 9.
       21    -1     0     0   103   101  0.0000000000e+00  0.0000000000e+00 -3.4190813401e+03  3.4190813401e+03  0.0000000000e+00 0. 9.
        6     2     1     2   103     0 -2.1766524743e+02 -1.4937970655e+02 -1.6968583773e+03  1.7258298210e+03  1.7166176611e+02  4.692045e-13 9.
       -6     2     1     2     0   102  2.1766524743e+02  1.4937970655e+02 -1.6904853384e+03  1.7249891435e+03  2.1944112953e+02  5.902949e-14 9.
       24     2     3     0     0     0 -2.1548913256e+02 -1.3193355524e+02 -1.6805647294e+03  1.7013834177e+03  8.1028978282e+01  6.158158e-14 9.
        5     1     3     0   103     0 -2.1761148635e+00 -1.7446151305e+01 -1.6293647904e+01  2.4446403280e+01  4.8000000000e+00 0. 9.
      -24     2     4     0     0     0  1.8535264020e+02  2.3639011300e+01 -1.2246447234e+03  1.2413722026e+03  7.9598006489e+01  2.141662e-13 9.
       -5     1     4     0     0   102  3.2312607230e+01  1.2574069525e+02 -4.6584061495e+02  4.8361694094e+02  4.8000000000e+00 0. 9.
      -15     1     5     0     0     0 -1.7737725264e+01 -1.0568259031e+01 -3.5957098244e+02  3.6016768802e+02  1.7768200000e+00  1.593666e-01 9.
       16     1     5     0     0     0 -1.9775140730e+02 -1.2136529621e+02 -1.3209937469e+03  1.3412157297e+03  0.0000000000e+00 0. 9.
       11     1     7     0     0     0  1.0769104034e+02  4.7780150008e+01 -6.0020274284e+02  6.1165646846e+02  5.1100000000e-04 0. 9.
      -12     1     7     0     0     0  7.7661599860e+01 -2.4141138708e+01 -6.2444198057e+02  6.2971573409e+02  0.0000000000e+00 0. 9.
#pdf   21   21  4.882711e-03  5.260125e-01  3.148972e+02  1.390504e+01  5.440176e-03
</event>
<event>
    12  9999  1.000000e+00  2.481155e+02  7.907229e-03  1.030404e-01
       21    -1     0     0   101   102  0.0000000000e+00  0.0000000000e+00  1.1521111909e+02  1.1521111909e+02  0.0000000000e+00 0. 9.
       21    -1     0     0   102   103  0.0000000000e+00  0.0000000000e+00 -6.0116510172e+02  6.0116510172e+02  0.0000000000e+00 0. 9.
        6     2     1     2   101     0  8.3666129220e+01  1.5966845903e+02 -1.2362170578e+02  2.7728024730e+02  1.7061058413e+02  4.492781e-14 9.
       -6     2     1     2     0   103 -8.3666129220e+01 -1.5966845903e+02 -3.6233227685e+02  4.3909597351e+02  1.7037182019e+02  8.104107e-14 9.
       24     2     3     0     0     0 -8.3520441760e+00  3.3778768404e+01 -3.3358926410e+01  9.7041606106e+01  8.4222879954e+01  1.710810e-13 9.
        5     1     3     0   101     0  9.2018173396e+01  1.2588969062e+02 -9.0262779370e+01  1.8023864120e+02  4.8000000000e+00 0. 9.
      -24     2     4     0     0     0 -1.9329040186e+01 -8.0920589310e+01 -2.9541492098e+02  3.1727044036e+02  8.0428870544e+01  1.874467e-15 9.
       -5     1     4     0     0   103 -6.4337089033e+01 -7.8747869717e+01 -6.6917355866e+01  1.2182553315e+02  4.8000000000e+00 0. 9.
      -11     1     5     0     0     0  2.1844352972e+01  5.0567223349e+01 -2.8902153415e+01  6.2205741747e+01  5.1100000000e-04 0. 9.
       12     1     5     0     0     0 -3.0196397148e+01 -1.6788454945e+01 -4.4567729951e+00  3.4835864360e+01  0.0000000000e+00 0. 9.
        3     1     7     0   104     0  2.5070762510e+01 -5.7534025904e+00 -9.9631704278e+01  1.0289981182e+02  5.0000000000e-01 0. 9.
       -4     1     7     0     0   104 -4.4399802696e+01 -7.5167186720e+01 -1.9578321670e+02  2.1437062854e+02  1.5000000000e+00 0. 9.
#pdf   21   21  1.772479e-02  9.248694e-02  2.480335e+02  5.100079e+00  8.892873e-01
</event>
<event>
    12  9999  1.000000e+00  2.372641e+02  7.903176e-03  1.035879e-01
       21    -1     0     0   101   102  0.0000000000e+00  0.0000000000e+00  1.5156181781e+02  1.5156181781e+02  0.0000000000e+00 0. 9.
       21    -1     0     0   102   103  0.0000000000e+00  0.0000000000e+00 -4.2526238104e+02  4.2526238104e+02  0.0000000000e+00 0. 9.
        6     2     1     2   101     0  1.1868531011e+02  1.1528613636e+02 -3.3924904017e+01  2.3906535367e+02  1.6918702119e+02  1.534959e-13 9.
       -6     2     1     2     0   103 -1.1868531011e+02 -1.1528613636e+02 -2.3977565922e+02  3.3775884518e+02  1.7091393936e+02  3.173917e-13 9.
       24     2     3     0     0     0  1.0234996367e+02  6.0611768790e+01  3.6803680216e+01  1.4806149309e+02  8.0114875527e+01  3.601901e-14 9.
        5     1     3     0   101     0  1.6335346442e+01  5.4674367573e+01 -7.0728584233e+01  9.1003860580e+01  4.8000000000e+00 0. 9.
      -24     2     4     0     0     0 -9.3014072798e+01 -1.4879099138e+02 -2.1476867389e+02  2.8846404779e+02  7.9344481368e+01  6.472168e-15 9.
       -5     1     4     0     0   103 -2.5671237309e+01  3.3504855020e+01 -2.5006985327e+01  4.9294797393e+01  4.8000000000e+00 0. 9.
       -3     1     5     0     0   104  6.3305895519e+01 -8.6455266677e+00  1.6402377348e+01  6.5967185187e+01  5.0000000000e-01 0. 9.
        4     1     5     0   104     0  3.9044068147e+01  6.9257295457e+01  2.0401302868e+01  8.2094307904e+01  1.5000000000e+00 0. 9.
        3     1     7     0   105     0 -8.9542209903e+01 -1.3129573942e+02 -1.4068031307e+02  2.1224414958e+02  5.0000000000e-01 0. 9.
       -4     1     7     0     0   105 -3.4718628946e+00 -1.7495251960e+01 -7.4088360825e+01  7.6219898208e+01  1.5000000000e+00 0. 9.
#pdf   21   21  2.331720e-02  6.542498e-02  2.366460e+02  4.009725e+00  1.383179e+00
</event>
<event>
    12  9999  1.000000e+00  2.268620e+02  7.899118e-03  1.041427e-01
       21    -1     0     0   101   102  0.0000000000e+00  0.0000000000e+00  1.6840405685e+02  1.6840405685e+02  0.0000000000e+00 0. 9.
       21    -1     0     0   102   103  0.0000000000e+00  0.0000000000e+00 -3.6635468241e+02  3.6635468241e+02  0.0000000000e+00 0. 9.
        6     2     1     2   101     0 -1.2713230848e+02  8.0181120214e+01  1.0149254600e+01  2.2639279005e+02  1.6899423695e+02  1.654719e-14 9.
       -6     2     1     2     0   103  1.2713230848e+02 -8.0181120214e+01 -2.0809988017e+02  3.0836594921e+02  1.7085772621e+02  2.055681e-14 9.
       24     2     3     0     0     0 -2.8636329323e+01  7.1849356283e+01  4.6922432979e+01  1.2081730593e+02  8.0079568802e+01  9.868566e-14 9.
        5     1     3     0   101     0 -9.8495979158e+01  8.3317639312e+00 -3.6773178378e+01  1.0557548413e+02  4.8000000000e+00 0. 9.
      -24     2     4     0     0     0  3.3819116112e+01 -4.1568646788e+01 -1.8027415320e+02  2.0350610916e+02  7.7744975020e+01  4.020891e-14 9.
       -5     1     4     0     0   103  9.3313192368e+01 -3.8612473426e+01 -2.7825726967e+01  1.0485984005e+02  4.8000000000e+00 0. 9.
      -15     1     5     0     0     0 -2.8346356208e+01  8.3935196590e+01  1.9332193353e+01  9.0694674188e+01  1.7768200000e+00  7.230303e-02 9.
       16     1     5     0     0     0 -2.8997311479e-01 -1.2085840307e+01  2.7590239626e+01  3.0122631740e+01  0.0000000000e+00 0. 9.
        3     1     7     0   104     0  4.1799680530e+01 -5.7453829756e+01 -1.0949618328e+02  1.3052900061e+02  5.0000000000e-01 0. 9.
       -2     1     7     0     0   104 -7.9805644175e+00  1.5885182968e+01 -7.0777969918e+01  7.2977108549e+01  3.3000000000e-01 0. 9.
#pdf   21   21  2.590832e-02  5.636226e-02  2.261652e+02  3.646612e+00  1.650409e+00
</event>
<event>
    12  9999  1.000000e+00  1.797337e+02  7.878106e-03  1.071243e-01
       21    -1     0     0   101   102  0.0000000000e+00  0.0000000000e+00  1.0232713376e+02  1.0232713376e+02  0.0000000000e+00 0. 9.
       21    -1     0     0   103   101  0.0000000000e+00  0.0000000000e+00 -3.1576723613e+02  3.1576723613e+02  0.0000000000e+00 0. 9.
        6     2     1     2   103     0 -1.7886064472e+01 -5.2791372292e+01 -1.0979513102e+02  2.1050677475e+02  1.7073749187e+02  3.422085e-13 9.
       -6     2     1     2     0   102  1.7886064472e+01  5.2791372292e+01 -1.0364497136e+02  2.0758759514e+02  1.7100727843e+02  1.949604e-13 9.
       24     2     3     0     0     0  8.0084342529e+00 -2.8309335731e+01 -1.3856941607e+02  1.6445360268e+02  8.3534129890e+01  3.418137e-14 9.
        5     1     3     0   103     0 -2.5894498725e+01 -2.4482036560e+01  2.8774285044e+01  4.6053172075e+01  4.8000000000e+00 0. 9.
      -24     2     4     0     0     0  1.2731052700e+01  7.5749505593e+01 -1.3057493888e+02  1.7150556108e+02  8.0400718398e+01  2.101716e-13 9.
       -5     1     4     0     0   102  5.1550117716e+00 -2.2958133302e+01  2.6929967521e+01  3.6082034057e+01  4.8000000000e+00 0. 9.
      -15     1     5     0     0     0 -3.2627547824e+01 -2.1394232135e-01 -8.7485568372e+01  9.3388888049e+01  1.7768200000e+00  3.367950e-03 9.
       16     1     5     0     0     0  4.0635982077e+01 -2.8095393410e+01 -5.1083847693e+01  7.1064714630e+01  0.0000000000e+00 0. 9.
        3     1     7     0   104     0  2.5592140439e+00  4.8222243365e+01 -1.2576618107e+01  4.9903463354e+01  5.0000000000e-01 0. 9.
       -4     1     7     0     0   104  1.0171838656e+01  2.7527262228e+01 -1.1799832077e+02  1.2160209773e+02  1.5000000000e+00 0. 9.
#pdf   21   21  1.574264e-02  4.857957e-02  1.796055e+02  5.656719e+00  1.973741e+00
</event>
<event>
    12  9999  1.000000e+00  1.839041e+02  7.880171e-03  1.068230e-01
       21    -1     0     0   101   102  0.0000000000e+00  0.0000000000e+00  5.4761966721e+02  5.4761966721e+02  0.0000000000e+00 0. 9.
       21    -1     0     0   102   103  0.0000000000e+00  0.0000000000e+00 -8.9115020015e+01  8.9115020015e+01  0.0000000000e+00 0. 9.
        6     2     1     2   101     0  4.4217243356e+01 -9.0154509276e+01  3.9247869788e+02  4.2804975165e+02  1.3821744263e+02  2.876553e-14 9.
       -6     2     1     2     0   103 -4.4217243356e+01  9.0154509276e+01  6.6025949321e+01  2.0868493558e+02  1.7060766747e+02  1.993386e-13 9.
       24     2     3     0     0     0  2.0954648291e+01 -2.1699109309e+01  1.3370491278e+02  1.5932274898e+02  8.1220600893e+01  8.646424e-15 9.
        5     1     3     0   101     0  2.3262595065e+01 -6.8455399967e+01  2.5877378509e+02  2.6872700267e+02  4.8000000000e+00 0. 9.
      -24     2     4     0     0     0 -4.1008857918e+01  1.0188869595e+02 -4.9249039814e+00  1.3653891380e+02  8.0966582695e+01  1.520242e-13 9.
       -5     1     4     0     0   103 -3.2083854381e+00 -1.1734186670e+01  7.0950853302e+01  7.2146021777e+01  4.8000000000e+00 0. 9.
       -3     1     5     0     0   104 -7.8630377139e-02 -3.4833715796e+00  1.3130757590e+02  1.3135474696e+02  5.0000000000e-01 0. 9.
        4     1     5     0   104     0  2.1033278668e+01 -1.8215737730e+01  2.3973368810e+00  2.7968002015e+01  1.5000000000e+00 0. 9.
       11     1     7     0     0     0 -2.4971334493e+01  5.5634638828e+01  3.7643295927e+01  7.1664484317e+01  5.1100000000e-04 0. 9.
      -12     1     7     0     0     0 -1.6037523425e+01  4.6254057118e+01 -4.2568199908e+01  6.4874429484e+01  0.0000000000e+00 0. 9.
#pdf   21   21  8.424918e-02  1.371000e-02  1.708422e+02  1.041494e+00  6.330151e+00
</event>
<event>
    12  9999  1.000000e+00  1.780194e+02  7.877243e-03  1.072507e-01
       21    -1     0     0   101   102  0.0000000000e+00  0.0000000000e+00  8.5676835537e+02  8.5676835537e+02  0.0000000000e+00 0. 9.
       21    -1     0     0   103   101  0.0000000000e+00  0.0000000000e+00 -9.4010382533e+01  9.4010382533e+01  0.0000000000e+00 0. 9.
        6     2     1     2   103     0 -5.2651805647e+01 -1.7720513125e+01  9.2502947401e+00  1.7599675099e+02  1.6674249364e+02  5.223037e-14 9.
       -6     2     1     2     0   102  5.2651805647e+01  1.7720513125e+01  7.5350767810e+02  7.7478198691e+02  1.7154322215e+02  3.680228e-13 9.
       24     2     3     0     0     0 -4.2368940024e+01 -5.3622082304e+01  5.2796188323e+01  1.1842987820e+02  8.1041617458e+01  1.457375e-13 9.
        5     1     3     0   103     0 -1.0282865623e+01  3.5901569179e+01 -4.3545893583e+01  5.7566872791e+01  4.8000000000e+00 0. 9.
      -24     2     4     0     0     0 -3.2273648685e-01 -3.6316880411e+01  5.4871820177e+02  5.5640590848e+02  8.4716291705e+01  2.150447e-13 9.
       -5     1     4     0     0   102  5.2974542134e+01  5.4037393535e+01  2.0478947633e+02  2.1837607843e+02  4.8000000000e+00 0. 9.
       -1     1     5     0     0   104 -6.1902868951e+00  1.3847432750e+01  3.7371057693e+01  4.0333310039e+01  3.3000000000e-01 0. 9.
        2     1     5     0   104     0 -3.6178653129e+01 -6.7469515055e+01  1.5425130630e+01  7.8096568163e+01  3.3000000000e-01 0. 9.
       15     1     7     0     0     0 -3.4441469602e+00 -1.3202254160e+01  9.5858141888e+00  1.6769215431e+01  1.7768200000e+00  2.592126e-02 9.
      -16     1     7     0     0     0  3.1214104733e+00 -2.3114626250e+01  5.3913238758e+02  5.3963669305e+02  0.0000000000e+00 0. 9.
#pdf   21   21  1.318105e-01  1.446314e-02  1.757535e+02  5.566992e-01  6.063187e+00
</event>
<event>
    12  9999  1.000000e+00  2.000388e+02  7.887750e-03  1.057326e-01
       21    -1     0     0   101   102  0.0000000000e+00  0.0000000000e+00  1.5613808525e+03  1.5613808525e+03  0.0000000000e+00 0. 9.
       21    -1     0     0   102   103  0.0000000000e+00  0.0000000000e+00 -1.4080670913e+02  1.4080670913e+02  0.0000000000e+00 0. 9.
        6     2     1     2   101     0 -1.0380849039e+02  6.5753686114e+00  1.4800213134e+03  1.4934748387e+03  1.7083491263e+02  8.601174e-14 9.
       -6     2     1     2     0   103  1.0380849039e+02 -6.5753686114e+00 -5.9447170053e+01  2.0871272298e+02  1.7090230120e+02  3.113238e-13 9.
       24     2     3     0     0     0 -6.8708589568e+01  1.7854070736e+01  4.2737914085e+02  4.4017630755e+02  7.7862786823e+01  1.391889e-14 9.
        5     1     3     0   101     0 -3.5099900824e+01 -1.1278702125e+01  1.0526421726e+03  1.0532985311e+03  4.8000000000e+00 0. 9.
      -24     2     4     0     0     0  9.1700092035e+01  4.0461900845e+01 -8.4588885256e+01  1.5381041090e+02  8.0351046616e+01  7.756219e-14 9.
       -5     1     4     0     0   103  1.2108398357e+01 -4.7037269457e+01  2.5141715203e+01  5.4902312083e+01  4.8000000000e+00 0. 9.
       -3     1     5     0     0   104 -5.8918783751e+01 -2.2962760048e+01  2.6735393983e+02  2.7473094214e+02  5.0000000000e-01 0. 9.
        4     1     5     0   104     0 -9.7898058170e+00  4.0816830785e+01  1.6002520102e+02  1.6544536541e+02  1.5000000000e+00 0. 9.
        3     1     7     0   105     0  1.5716456871e+01  1.2180626402e+01  1.5340633542e+01  2.5118911473e+01  5.0000000000e-01 0. 9.
       -4     1     7     0     0   105  7.5983635164e+01  2.8281274443e+01 -9.9929518798e+01  1.2869149942e+02  1.5000000000e+00 0. 9.
#pdf   21   21  2.402124e-01  2.166257e-02  2.000100e+02  1.810888e-01  4.301639e+00
</event>
<event>
    12  9999  1.000000e+00  2.136355e+02  7.893687e-03  1.048957e-01
       21    -1     0     0   101   102  0.0000000000e+00  0.0000000000e+00  2.8769230717e+02  2.8769230717e+02  0.0000000000e+00 0. 9.
       21    -1     0     0   102   103  0.0000000000e+00  0.0000000000e+00 -1.7351784886e+02  1.7351784886e+02  0.0000000000e+00 0. 9.
        6     2     1     2   101     0  4.1171160043e+01  1.2180504236e+02  1.2457562677e+02  2.4719124227e+02  1.7044908538e+02  1.893635e-14 9.
       -6     2     1     2     0   103 -4.1171160043e+01 -1.2180504236e+02 -1.0401168458e+01  2.1401891376e+02  1.7077581321e+02  4.883983e-14 9.
       24     2     3     0     0     0  2.6221938506e+01  1.4149037730e+02  1.4151864448e+02  2.1684165438e+02  7.9282150639e+01  1.375923e-13 9.
        5     1     3     0   101     0  1.4949221536e+01 -1.9685334934e+01 -1.6943017715e+01  3.0349587893e+01  4.8000000000e+00 0. 9.
      -24     2     4     0     0     0 -3.5756302506e+01 -1.3596005720e+02 -5.0942924895e+01  1.7047170786e+02  8.1864346700e+01  1.037543e-13 9.
       -5     1     4     0     0   103 -5.4148575372e+00  1.4155014835e+01  4.0541756437e+01  4.3547205905e+01  4.8000000000e+00 0. 9.
      -13     1     5     0     0     0  3.2426797102e+01  1.7727425182e+01  5.2757143799e+01  6.4413400467e+01  1.0566000000e-01  2.549804e+05 9.
       14     1     5     0     0     0 -6.2048585959e+00  1.2376295211e+02  8.8761500686e+01  1.5242825391e+02  0.0000000000e+00 0. 9.
        3     1     7     0   104     0 -5.7869806270e+01 -6.3493213745e+01 -1.7671204007e+01  8.7708745975e+01  5.0000000000e-01 0. 9.
       -4     1     7     0     0   104  2.2113503764e+01 -7.2466843451e+01 -3.3271720887e+01  8.2762961881e+01  1.5000000000e+00 0. 9.
#pdf   21   21  4.426035e-02  2.669505e-02  2.135051e+02  2.157144e+00  3.554001e+00
</event>
<event>
    12  9999  1.000000e+00  2.908029e+02  7.921647e-03  1.011433e-01
       21    -1     0     0   101   102  0.0000000000e+00  0.0000000000e+00  2.8360752056e+02  2.8360752056e+02  0.0000000000e+00 0. 9.
       21    -1     0     0   103   101  0.0000000000e+00  0.0000000000e+00 -3.2921491994e+02  3.2921491994e+02  0.0000000000e+00 0. 9.
        6     2     1     2   103     0 -2.0649475325e+02 -1.1126147453e+02 -1.1688046127e+02  3.1340761313e+02  1.7188394604e+02  3.254255e-13 9.
       -6     2     1     2     0   102  2.0649475325e+02  1.1126147453e+02  7.1273061885e+01  2.9941482737e+02  1.7190168895e+02  3.192739e-14 9.
       24     2     3     0     0     0 -1.9154956516e+02 -1.2146007241e+02 -5.2482965501e+01  2.4634460166e+02  8.0544497017e+01  1.932507e-13 9.
        5     1     3     0   103     0 -1.4945188091e+01  1.0198597882e+01 -6.4397495764e+01  6.7063011464e+01  4.8000000000e+00 0. 9.
      -24     2     4     0     0     0  8.2012462417e+01  7.3047918915e+01  9.8216626790e+01  1.6635426877e+02  7.7234671695e+01  1.226727e-14 9.
       -5     1     4     0     0   102  1.2448229083e+02  3.8213555611e+01 -2.6943564905e+01  1.3306055859e+02  4.8000000000e+00 0. 9.
       -3     1     5     0     0   104 -1.5523317750e+02 -1.2888753437e+02 -5.5098355886e+01  2.0915404546e+02  5.0000000000e-01 0. 9.
        4     1     5     0   104     0 -3.6316387660e+01  7.4274619591e+00  2.6153903847e+00  3.7190556203e+01  1.5000000000e+00 0. 9.
       11     1     7     0     0     0  8.2452696502e+01  8.0574855722e+01  6.5112547115e+01  1.3240241058e+02  5.1100000000e-04 0. 9.
      -12     1     7     0     0     0 -4.4023408538e-01 -7.5269368069e+00  3.3104079675e+01  3.3951858195e+01  0.0000000000e+00 0. 9.
#pdf   21   21  4.363193e-02  5.064845e-02  2.907977e+02  2.151134e+00  1.829108e+00
</event>
<event>
    12  9999  1.000000e+00  1.981263e+02  7.886883e-03  1.058561e-01
       21    -1     0     0   101   102  0.0000000000e+00  0.0000000000e+00  1.9288474724e+02  1.9288474724e+02  0.0000000000e+00 0. 9.
       21    -1     0     0   102   103  0.0000000000e+00  0.0000000000e+00 -2.0359558014e+02  2.0359558014e+02  0.0000000000e+00 0. 9.
        6     2     1     2   101     0 -9.3431024859e+01  1.1723431975e+01 -2.4397754496e+00  2.0090372925e+02  1.7745298155e+02  5.287278e-14 9.
       -6     2     1     2     0   103  9.3431024859e+01 -1.1723431975e+01 -8.2710574465e+00  1.9557659812e+02  1.7121623778e+02  1.847082e-13 9.
       24     2     3     0     0     0 -3.6811077390e+01  3.0877118537e+01 -6.4476892357e+01  1.1462322141e+02  8.1686971848e+01  1.406268e-13 9.
        5     1     3     0   101     0 -5.6619947469e+01 -1.9153686562e+01  6.2037116908e+01  8.6280507848e+01  4.8000000000e+00 0. 9.
      -24     2     4     0     0     0  6.8169979374e+01  4.9272865324e+01  2.8995082930e+01  1.1961296260e+02  7.9947386717e+01  5.318069e-14 9.
       -5     1     4     0     0   103  2.5261045485e+01 -6.0996297299e+01 -3.7266140377e+01  7.5963635522e+01  4.8000000000e+00 0. 9.
       -1     1     5     0     0   104 -3.5962575402e+01  5.2235922924e+01 -2.2100689842e+01  6.7159867963e+01  3.3000000000e-01 0. 9.
        2     1     5     0   104     0 -8.4850198750e-01 -2.1358804387e+01 -4.2376202515e+01  4.7463353443e+01  3.3000000000e-01 0. 9.
        3     1     7     0   105     0  2.6665203545e+01 -2.0359118185e+01  1.7129162510e+01  3.7672071640e+01  5.0000000000e-01 0. 9.
       -4     1     7     0     0   105  4.1504775829e+01  6.9631983509e+01  1.1865920421e+01  8.1940890960e+01  1.5000000000e+00 0. 9.
#pdf   21   21  2.967458e-02  3.132240e-02  1.954016e+02  3.228533e+00  3.066417e+00
</event>
<event>
    12  9999  1.000000e+00  1.754831e+02  7.875952e-03  1.074406e-01
       21    -1     0     0   101   102  0.0000000000e+00  0.0000000000e+00  1.5208466352e+02  1.5208466352e+02  0.0000000000e+00 0. 9.
       21    -1     0     0   103   101  0.0000000000e+00  0.0000000000e+00 -2.1178690482e+02  2.1178690482e+02  0.0000000000e+00 0. 9.
        6     2     1     2   103     0 -7.2366930516e+00  6.3710801039e+01 -6.8117837860e+01  1.8905038621e+02  1.6428199169e+02  6.169221e-14 9.
       -6     2     1     2     0   102  7.2366930516e+00 -6.3710801039e+01  8.4155965559e+00  1.7482118213e+02  1.6241978808e+02  1.098078e-13 9.
       24     2     3     0     0     0  3.6961589400e+01  6.5399496386e+01 -9.4378693456e-01  1.0847909491e+02  7.8253243255e+01  3.895363e-14 9.
        5     1     3     0   103     0 -4.4198282452e+01 -1.6886953467e+00 -6.7174050926e+01  8.0571291298e+01  4.8000000000e+00 0. 9.
      -24     2     4     0     0     0 -5.7751515710e+00  2.4456367452e+01  1.8194268625e+01  8.5035770575e+01  7.9174393473e+01  1.743965e-14 9.
       -5     1     4     0     0   102  1.3011844623e+01 -8.8167168492e+01 -9.7786720693e+00  8.9785411553e+01  4.8000000000e+00 0. 9.
       -3     1     5     0     0   104 -5.0398022276e+00  1.2192766693e+01  3.0875993775e+01  3.3580353747e+01  5.0000000000e-01 0. 9.
        4     1     5     0   104     0  4.2001391628e+01  5.3206729693e+01 -3.1819780710e+01  7.4898741162e+01  1.5000000000e+00 0. 9.
        3     1     7     0   105     0 -1.2727301117e+01  1.8423483752e+01 -2.9161573616e+01  3.6770318506e+01  5.0000000000e-01 0. 9.
       -4     1     7     0     0   105  6.9521495462e+00  6.0328837004e+00  4.7355842241e+01  4.8265452069e+01  1.5000000000e+00 0. 9.
#pdf   21   21  2.339764e-02  3.258260e-02  1.746185e+02  4.029105e+00  2.964899e+00
</event>
<event>
    12  9999  1.000000e+00  1.901698e+02  7.883188e-03  1.063859e-01
        2    -1     0     0   101     0  0.0000000000e+00  0.0000000000e+00  2.9977167676e+02  2.9977167676e+02  0.0000000000e+00 0. 9.
       -2    -1     0     0     0   102  0.0000000000e+00  0.0000000000e+00 -1.4378110726e+02  1.4378110726e+02  0.0000000000e+00 0. 9.
        6     2     1     2   101     0 -1.0346206086e+01  8.0079120812e+01  1.6714823888e+02  2.5358600066e+02  1.7276462717e+02  2.294797e-14 9.
       -6     2     1     2     0   102  1.0346206086e+01 -8.0079120812e+01 -1.1157669379e+01  1.8996678335e+02  1.7159013847e+02  2.448791e-14 9.
       24     2     3     0     0     0  4.8032261605e+01  2.3742398413e+00  7.9109703831e+01  1.2236131675e+02  8.0007571053e+01  8.058734e-14 9.
        5     1     3     0   101     0 -5.8378467690e+01  7.7704880970e+01  8.8038535045e+01  1.3122468392e+02  4.8000000000e+00 0. 9.
      -24     2     4     0     0     0  6.3511880044e+01 -6.4483877966e+01  2.3684893487e+01  1.2434022871e+02  8.1899871020e+01  4.777399e-14 9.
       -5     1     4     0     0   102 -5.3165673958e+01 -1.5595242846e+01 -3.4842562866e+01  6.5626554640e+01  4.8000000000e+00 0. 9.
       -3     1     5     0     0   103  3.9382151360e+01 -6.6783451132e+00  9.4422006738e+01  1.0252472626e+02  5.0000000000e-01 0. 9.
        4     1     5     0   103     0  8.6501102443e+00  9.0525849545e+00 -1.5312302907e+01  1.9836590481e+01  1.5000000000e+00 0. 9.
        1     1     7     0   104     0  1.5565519150e+01  1.9741606729e+01  4.4458318707e+00  2.5532151176e+01  3.3000000000e-01 0. 9.
       -2     1     7     0     0   104  4.7946360894e+01 -8.4225484695e+01  1.9239061616e+01  9.8808077539e+01  3.3000000000e-01 0. 9.
#pdf    2   -2  4.611872e-02  2.212017e-02  1.896388e+02  6.259137e-01  3.110074e-01
</event>
<event>
    12  9999  1.000000e+00  1.916293e+02  7.883877e-03  1.062866e-01
       21    -1     0     0   101   102  0.0000000000e+00  0.0000000000e+00  1.2107945795e+02  1.2107945795e+02  0.0000000000e+00 0. 9.
       21    -1     0     0   102   103  0.0000000000e+00  0.0000000000e+00 -3.0351461228e+02  3.0351461228e+02  0.0000000000e+00 0. 9.
        6     2     1     2   101     0  8.3770219128e+01 -2.6857399187e+01 -9.6950591403e+01  2.1460371610e+02  1.7004872328e+02  6.798759e-14 9.
       -6     2     1     2     0   103 -8.3770219128e+01  2.6857399187e+01 -8.5484562929e+01  2.0999035412e+02  1.7043934059e+02  4.135926e-13 9.
       24     2     3     0     0     0  3.5485446816e+00 -2.9751941494e+01 -1.0526004569e+02  1.3375829288e+02  7.6901453183e+01  1.049554e-13 9.
        5     1     3     0   101     0  8.0221674446e+01  2.8945423064e+00  8.3094542914e+00  8.0845423227e+01  4.8000000000e+00 0. 9.
      -24     2     4     0     0     0 -6.5827996376e+00 -2.1563176254e+01 -1.1641152133e+00  8.5750957161e+01  8.2725858525e+01  5.869646e-14 9.
       -5     1     4     0     0   103 -7.7187419490e+01  4.8420575441e+01 -8.4320447716e+01  1.2423939696e+02  4.8000000000e+00 0. 9.
       -3     1     5     0     0   104 -6.1032686084e-01 -1.8028033178e+01 -1.1591467081e+02  1.1731088350e+02  5.0000000000e-01 0. 9.
        4     1     5     0   104     0  4.1588715425e+00 -1.1723908316e+01  1.0654625117e+01  1.6447409373e+01  1.5000000000e+00 0. 9.
        3     1     7     0   105     0 -3.3115944688e+00  7.0515120014e+00  3.7056705265e+01  3.7870039405e+01  5.0000000000e-01 0. 9.
       -4     1     7     0     0   105 -3.2712051688e+00 -2.8614688256e+01 -3.8220820478e+01  4.7880917757e+01  1.5000000000e+00 0. 9.
#pdf   21   21  1.862761e-02  4.669456e-02  1.914558e+02  4.908860e+00  2.051353e+00
</event>
<event>
    12  9999  1.000000e+00  2.013024e+02  7.888318e-03  1.056519e-01
       21    -1     0     0   101   102  0.0000000000e+00  0.0000000000e+00  1.7099692965e+03  1.7099692965e+03  0.0000000000e+00 0. 9.
       21    -1     0     0   103   101  0.0000000000e+00  0.0000000000e+00 -2.3834434238e+01  2.3834434238e+01  0.0000000000e+00 0. 9.
        6     2     1     2   103     0  4.4310618932e+01 -9.2852628443e+01  7.8164473494e+02  8.0739437699e+02  1.7416126657e+02  5.338606e-14 9.
       -6     2     1     2     0   102 -4.4310618932e+01  9.2852628443e+01  9.0449012731e+02  9.2640935374e+02  1.7189199730e+02  2.520415e-13 9.
       24     2     3     0     0     0  7.4801136353e+01 -1.2035121393e+02  5.9338131598e+02  6.1464583932e+02  7.4889898773e+01  1.735677e-15 9.
        5     1     3     0   103     0 -3.0490517421e+01  2.7498585489e+01  1.8826341896e+02  1.9274853767e+02  4.8000000000e+00 0. 9.
      -24     2     4     0     0     0 -9.2080339468e+01  6.0677065446e+01  6.8859598373e+02  7.0291319205e+02  8.8102392543e+01  6.557253e-14 9.
       -5     1     4     0     0   102  4.7769720536e+01  3.2175562997e+01  2.1589414359e+02  2.2349616169e+02  4.8000000000e+00 0. 9.
       -3     1     5     0     0   104  5.1279464470e+01 -1.1839857424e+02  4.1206188503e+02  4.3179051976e+02  5.0000000000e-01 0. 9.
        4     1     5     0   104     0  2.3521671883e+01 -1.9526396891e+00  1.8131943095e+02  1.8285531956e+02  1.5000000000e+00 0. 9.
        1     1     7     0   105     0 -3.8548681353e+01  6.0126109229e+01  5.4503849809e+02  5.4969830193e+02  3.3000000000e-01 0. 9.
       -2     1     7     0     0   105 -5.3531658115e+01  5.5095621695e-01  1.4355748564e+02  1.5321489012e+02  3.3000000000e-01 0. 9.
#pdf   21   21  2.630722e-01  3.666836e-03  2.003295e+02  1.454287e-01  1.665191e+01
</event>
<event>
    12  9999  1.000000e+00  1.736404e+02  7.875003e-03  1.075807e-01
       -2    -1     0     0     0   101  0.0000000000e+00  0.0000000000e+00  5.8840110683e+01  5.8840110683e+01  0.0000000000e+00 0. 9.
        2    -1     0     0   102     0  0.0000000000e+00  0.0000000000e+00 -5.2508457078e+02  5.2508457078e+02  0.0000000000e+00 0. 9.
       -6     2     1     2     0   101  3.2966530908e+00 -3.0133852373e+01 -1.8897593984e+02  2.5724278997e+02  1.7188086041e+02  1.261124e-13 9.
        6     2     1     2   102     0 -3.2966530908e+00  3.0133852373e+01 -2.7726852026e+02  3.2668189149e+02  1.7007148180e+02  2.595703e-13 9.
      -24     2     3     0     0     0 -1.0339341293e+00  1.6942831325e+01 -2.8333441975e+01  8.9719596792e+01  8.3418784223e+01  1.748224e-14 9.
       -5     1     3     0     0   101  4.3305872201e+00 -4.7076683698e+01 -1.6064249786e+02  1.6752319318e+02  4.8000000000e+00 0. 9.
       24     2     4     0     0     0 -4.3882689960e+01  6.4502183211e+01 -1.3889580577e+02  1.7836312442e+02  8.0219306730e+01  2.510464e-13 9.
        5     1     4     0   102     0  4.0586036869e+01 -3.4368330838e+01 -1.3837271449e+02  1.4831876708e+02  4.8000000000e+00 0. 9.
       15     1     5     0     0     0 -1.4194114838e+01  4.8016033830e+01 -2.4457861303e+01  5.5752636437e+01  1.7768200000e+00  1.060507e-01 9.
      -16     1     5     0     0     0  1.3160180709e+01 -3.1073202505e+01 -3.8755806717e+00  3.3966960355e+01  0.0000000000e+00 0. 9.
      -13     1     7     0     0     0 -1.1427440840e+01 -5.2587063372e-01 -9.0102462418e+01  9.0825810439e+01  1.0566000000e-01  4.396366e+05 9.
       14     1     7     0     0     0 -3.2455249120e+01  6.5028053844e+01 -4.8793343357e+01  8.7537313976e+01  0.0000000000e+00 0. 9.
#pdf   -2    2  9.052325e-03  8.078224e-02  1.727519e+02  5.481948e-01  5.973562e-01
</event>
<event>
    12  9999  1.000000e+00  2.019711e+02  7.888617e-03  1.056094e-01
       21    -1     0     0   101   102  0.0000000000e+00  0.0000000000e+00  2.8514480350e+01  2.8514480350e+01  0.0000000000e+00 0. 9.
       21    -1     0     0   102   103  0.0000000000e+00  0.0000000000e+00 -1.4307744649e+03  1.4307744649e+03  0.0000000000e+00 0. 9.
        6     2     1     2   101     0  1.0223392940e+02 -3.7232785979e+01 -7.0925951962e+02  7.3743269738e+02  1.7005840267e+02  1.911060e-13 9.
       -6     2     1     2     0   103 -1.0223392940e+02  3.7232785979e+01 -6.9300046493e+02  7.2185624787e+02  1.7026080443e+02  3.146590e-13 9.
       24     2     3     0     0     0  1.1043010140e+02 -6.9084163585e+01 -6.6005748030e+02  6.7805620233e+02  8.4361764234e+01  3.675053e-13 9.
        5     1     3     0   101     0 -8.1961720055e+00  3.1851377606e+01 -4.9202039317e+01  5.9376495046e+01  4.8000000000e+00 0. 9.
      -24     2     4     0     0     0 -1.3663049999e+02  4.8895432021e+01 -5.9235893338e+02  6.1475396380e+02  7.7296010579e+01  1.452542e-14 9.
       -5     1     4     0     0   103  3.4396570588e+01 -1.1662646043e+01 -1.0064153154e+02  1.0710228407e+02  4.8000000000e+00 0. 9.
      -15     1     5     0     0     0 -1.0185976151e+01 -2.2890402539e+01 -1.3735024054e+02  1.3962797107e+02  1.7768200000e+00  2.415283e-02 9.
       16     1     5     0     0     0  1.2061607755e+02 -4.6193761046e+01 -5.2270723976e+02  5.3842823126e+02  0.0000000000e+00 0. 9.
        3     1     7     0   104     0 -1.3671399439e+02  2.3683161052e+01 -4.8441718366e+02  5.0389668207e+02  5.0000000000e-01 0. 9.
       -4     1     7     0     0   104  8.3494404238e-02  2.5212270969e+01 -1.0794174972e+02  1.1085728173e+02  1.5000000000e+00 0. 9.
#pdf   21   21  4.386843e-03  2.201191e-01  2.018859e+02  1.475007e+01  2.191183e-01
</event>
<event>
    12  9999  1.000000e+00  2.025433e+02  7.888873e-03  1.055732e-01
       21    -1     0     0   101   102  0.0000000000e+00  0.0000000000e+00  2.1062049556e+03  2.1062049556e+03  0.0000000000e+00 0. 9.
       21    -1     0     0   102   103  0.0000000000e+00  0.0000000000e+00 -4.8700422716e+01  4.8700422716e+01  0.0000000000e+00 0. 9.
        6     2     1     2   101     0 -4.8945479960e+01 -9.9324350943e+01  1.8633205801e+03  1.8742933181e+03  1.6956081986e+02  4.846212e-15 9.
       -6     2     1     2     0   103  4.8945479960e+01  9.9324350943e+01  1.9418395283e+02  2.8061206019e+02  1.6963117074e+02  1.109470e-13 9.
       24     2     3     0     0     0  3.4928225658e+01 -7.6531648669e+01  9.7253216585e+02  9.7926184123e+02  7.7832293226e+01  4.560310e-14 9.
        5     1     3     0   101     0 -8.3873705618e+01 -2.2792702274e+01  8.9078841421e+02  8.9503147691e+02  4.8000000000e+00 0. 9.
      -24     2     4     0     0     0 -3.1132341774e+01  8.1065909811e+01  1.1916884098e+02  1.6927412769e+02  8.3136112534e+01  2.716379e-14 9.
       -5     1     4     0     0   103  8.0077821734e+01  1.8258441132e+01  7.5015111850e+01  1.1133793249e+02  4.8000000000e+00 0. 9.
       -3     1     5     0     0   104  6.7976052873e+00 -7.5298792754e+00  5.5738585224e+02  5.5747838056e+02  5.0000000000e-01 0. 9.
        4     1     5     0   104     0  2.8130620371e+01 -6.9001769394e+01  4.1514631361e+02  4.2178346066e+02  1.5000000000e+00 0. 9.
       11     1     7     0     0     0 -8.6772840133e+00  9.2281378710e+01  7.8404229910e+01  1.2140169432e+02  5.1100000000e-04 0. 9.
      -12     1     7     0     0     0 -2.2455057761e+01 -1.1215468899e+01  4.0764611070e+01  4.7872433376e+01  0.0000000000e+00 0. 9.
#pdf   21   21  3.240315e-01  7.492373e-03  2.025138e+02  7.929074e-02  1.008725e+01
</event>
<event>
    12  9999  1.000000e+00  2.905065e+02  7.921554e-03  1.011553e-01
       21    -1     0     0   101   102  0.0000000000e+00  0.0000000000e+00  4.0862860328e+02  4.0862860328e+02  0.0000000000e+00 0. 9.
       21    -1     0     0   103   101  0.0000000000e+00  0.0000000000e+00 -2.8592266709e+02  2.8592266709e+02  0.0000000000e+00 0. 9.
        6     2     1     2   103     0  8.1791200184e+01  2.2007452994e+02 -1.2160309475e+02  3.1516836570e+02  1.7152605321e+02  1.931171e-13 9.
       -6     2     1     2     0   102 -8.1791200184e+01 -2.2007452994e+02  2.4430903093e+02  3.7938290467e+02  1.7065135980e+02  1.304154e-13 9.
       24     2     3     0     0     0  8.7754700460e+01  2.1538803837e+02 -6.1562621369e+01  2.5446066452e+02  8.2869650145e+01  2.446624e-14 9.
        5     1     3     0   103     0 -5.9635002756e+00  4.6864915749e+00 -6.0040473379e+01  6.0707701178e+01  4.8000000000e+00 0. 9.
      -24     2     4     0     0     0 -1.9425322022e+01 -2.0304978316e+02  2.0743737234e+02  3.0480473113e+02  9.0934608897e+01  8.879057e-14 9.
       -5     1     4     0     0   102 -6.2365878162e+01 -1.7024746782e+01  3.6871658594e+01  7.4578173545e+01  4.8000000000e+00 0. 9.
      -11     1     5     0     0     0  2.1031512285e+01 -2.0431269806e-01 -8.0608072526e+00  2.2524272829e+01  5.1100000000e-04 0. 9.
       12     1     5     0     0     0  6.6723188175e+01  2.1559235107e+02 -5.3501814117e+01  2.3193639170e+02  0.0000000000e+00 0. 9.
       15     1     7     0     0     0 -3.8290393843e+01 -2.0056168096e+02  1.8701725646e+02  2.7689303608e+02  1.7768200000e+00  3.169671e-02 9.
      -16     1     7     0     0     0  1.8865071821e+01 -2.4881022026e+00  2.0420115885e+01  2.7911695043e+01  0.0000000000e+00 0. 9.
#pdf   21   21  6.286594e-02  4.398810e-02  2.902490e+02  1.427646e+00  2.132795e+00
</event>
<event>
    12  9999  1.000000e+00  1.735723e+02  7.874968e-03  1.075859e-01
       21    -1     0     0   101   102  0.0000000000e+00  0.0000000000e+00  1.7079097282e+03  1.7079097282e+03  0.0000000000e+00 0. 9.
       21    -1     0     0   103   101  0.0000000000e+00  0.0000000000e+00 -6.5901417225e+01  6.5901417225e+01  0.0000000000e+00 0. 9.
        6     2     1     2   103     0 -1.1405237465e+01  2.5303280274e+01  6.0590018942e+01  1.8277069690e+02  1.7018707888e+02  2.230697e-13 9.
       -6     2     1     2     0   102  1.1405237465e+01 -2.5303280274e+01  1.5814182920e+03  1.5910404485e+03  1.7249799714e+02  3.848642e-13 9.
       24     2     3     0     0     0  1.9273411484e+01 -4.4016400155e+01  4.3290472217e+01  1.0486875910e+02  8.2549886604e+01  8.353171e-14 9.
        5     1     3     0   103     0 -3.0678648949e+01  6.9319680430e+01  1.7299546725e+01  7.7901937801e+01  4.8000000000e+00 0. 9.
      -24     2     4     0     0     0 -3.9599621184e+01 -5.3896161050e+01  7.1263925301e+02  7.2028267101e+02  8.0495310809e+01  9.656877e-14 9.
       -5     1     4     0     0   102  5.1004858649e+01  2.8592880776e+01  8.6877903902e+02  8.7075777750e+02  4.8000000000e+00 0. 9.
      -13     1     5     0     0     0  8.5779150670e-01  1.4540606197e+01 -1.4505750680e+01  2.0557066953e+01  1.0566000000e-01  3.453204e+05 9.
       14     1     5     0     0     0  1.8415619977e+01 -5.8557006353e+01  5.7796222898e+01  8.4311692151e+01  0.0000000000e+00 0. 9.
        3     1     7     0   104     0  1.4590679398e+01 -4.7544370025e+01  3.1104244232e+02  3.1499366021e+02  5.0000000000e-01 0. 9.
       -4     1     7     0     0   104 -5.4190300582e+01 -6.3517910245e+00  4.0159681068e+02  4.0528901080e+02  1.5000000000e+00 0. 9.
#pdf   21   21  2.627553e-01  1.013868e-02  1.724354e+02  1.507992e-01  8.016575e+00
</event>
<event>
    12  9999  1.000000e+00  2.338819e+02  7.901876e-03  1.037650e-01
       21    -1     0     0   101   102  0.0000000000e+00  0.0000000000e+00  3.2491171131e+02  3.2491171131e+02  0.0000000000e+00 0. 9.
       21    -1     0     0   103   101  0.0000000000e+00  0.0000000000e+00 -2.8025746926e+02  2.8025746926e+02  0.0000000000e+00 0. 9.
        6     2     1     2   103     0  7.8901104907e+01  1.3887136985e+02 -1.6885612864e+02  2.8869222823e+02  1.7123133106e+02  4.498238e-14 9.
       -6     2     1     2     0   102 -7.8901104907e+01 -1.3887136985e+02  2.1351037070e+02  3.1647695234e+02  1.7047093959e+02  4.881047e-15 9.
       24     2     3     0     0     0  8.9963598605e+01  1.3015036246e+02 -7.3480635915e+01  1.9216265063e+02  8.0588550817e+01  1.314979e-14 9.
        5     1     3     0   103     0 -1.1062493699e+01  8.7210073972e+00 -9.5375492729e+01  9.6529577593e+01  4.8000000000e+00 0. 9.
      -24     2     4     0     0     0 -5.7636216870e+01 -1.3184569182e+02  9.1390404071e+01  1.9222767925e+02  8.8848493328e+01  5.860382e-14 9.
       -5     1     4     0     0   102 -2.1264888036e+01 -7.0256780371e+00  1.2211996662e+02  1.2424927309e+02  4.8000000000e+00 0. 9.
       -3     1     5     0     0   104  5.8041512305e+01  1.8265773689e+01 -1.9551523281e+01  6.3913752055e+01  5.0000000000e-01 0. 9.
        4     1     5     0   104     0  3.1922086300e+01  1.1188458877e+02 -5.3929112634e+01  1.2824889858e+02  1.5000000000e+00 0. 9.
        3     1     7     0   105     0  8.9398561619e+00 -4.2253899335e+01 -6.5957091479e+00  4.3692864593e+01  5.0000000000e-01 0. 9.
       -4     1     7     0     0   105 -6.6576073032e+01 -8.9591792481e+01  9.7986113219e+01  1.4853481465e+02  1.5000000000e+00 0. 9.
#pdf   21   21  4.998642e-02  4.311653e-02  2.336043e+02  1.882273e+00  2.205802e+00
</event>
<event>
    12  9999  1.000000e+00  4.218416e+02  7.955640e-03  9.696360e-02
       21    -1     0     0   101   102  0.0000000000e+00  0.0000000000e+00  1.8893072630e+03  1.8893072630e+03  0.0000000000e+00 0. 9.
       21    -1     0     0   103   101  0.0000000000e+00  0.0000000000e+00 -1.3627227684e+02  1.3627227684e+02  0.0000000000e+00 0. 9.
        6     2     1     2   103     0  1.5091913267e+02 -3.5478736476e+02  3.1352756578e+02  5.2550357491e+02  1.7089123424e+02  8.551566e-14 9.
       -6     2     1     2     0   102 -1.5091913267e+02  3.5478736476e+02  1.4395074204e+03  1.5000759649e+03  1.7145153384e+02  1.526994e-13 9.
       24     2     3     0     0     0  1.6344895719e+02 -3.0480052073e+02  3.1374325424e+02  4.7374676279e+02  7.9888964395e+01  7.667807e-14 9.
        5     1     3     0   103     0 -1.2529824525e+01 -4.9986844033e+01 -2.1568845956e-01  5.1756812117e+01  4.8000000000e+00 0. 9.
      -24     2     4     0     0     0 -6.5869230119e+01  7.9481629050e+01  3.6934869792e+02  3.9179375120e+02  8.0173549181e+01  5.854630e-14 9.
       -5     1     4     0     0   102 -8.5049902547e+01  2.7530573571e+02  1.0701587225e+03  1.1082822138e+03  4.8000000000e+00 0. 9.
       -3     1     5     0     0   104  1.5042689264e+02 -2.3169029603e+02  2.1426078075e+02  3.4959487335e+02  5.0000000000e-01 0. 9.
        4     1     5     0   104     0  1.3022064546e+01 -7.3110224702e+01  9.9482473489e+01  1.2415188944e+02  1.5000000000e+00 0. 9.
        1     1     7     0   105     0  1.1390102268e+01  8.7680838222e+00  1.0052662954e+01  1.7543621521e+01  3.3000000000e-01 0. 9.
       -2     1     7     0     0   105 -7.7259332388e+01  7.0713545228e+01  3.5929603497e+02  3.7425012968e+02  3.3000000000e-01 0. 9.
#pdf   21   21  2.906627e-01  2.096497e-02  4.217280e+02  9.344828e-02  4.347479e+00
</event>
<event>
    12  9999  1.000000e+00  1.773280e+02  7.876893e-03  1.073022e-01
       21    -1     0     0   101   102  0.0000000000e+00  0.0000000000e+00  1.7277680055e+03  1.7277680055e+03  0.0000000000e+00 0. 9.
       21    -1     0     0   103   101  0.0000000000e+00  0.0000000000e+00 -2.4363173972e+01  2.4363173972e+01  0.0000000000e+00 0. 9.
        6     2     1     2   103     0 -3.0049742416e+01  2.9814686388e+01  4.0852683724e+02  4.4507033269e+02  1.7146871945e+02  4.303741e-14 9.
       -6     2     1     2     0   102  3.0049742416e+01 -2.9814686388e+01  1.2948779943e+03  1.3070608467e+03  1.7293679354e+02  8.097663e-14 9.
       24     2     3     0     0     0 -4.2195241510e+01  6.4318334309e+01  1.6625310356e+02  2.0000377662e+02  8.0275336728e+01  2.531872e-13 9.
        5     1     3     0   103     0  1.2145499093e+01 -3.4503647921e+01  2.4227373368e+02  2.4506655606e+02  4.8000000000e+00 0. 9.
      -24     2     4     0     0     0 -1.2908913344e+00 -6.0067189635e+01  4.5284303048e+02  4.6388626845e+02  8.0708897462e+01  1.221089e-13 9.
       -5     1     4     0     0   102  3.1340633751e+01  3.0252503247e+01  8.4203496377e+02  8.4317457830e+02  4.8000000000e+00 0. 9.
       -3     1     5     0     0   104 -1.4419316838e+01  6.2152922914e+01  1.5877877875e+02  1.7111941184e+02  5.0000000000e-01 0. 9.
        4     1     5     0   104     0 -2.7775924671e+01  2.1654113958e+00  7.4743248032e+00  2.8884364787e+01  1.5000000000e+00 0. 9.
        3     1     7     0   105     0 -1.0996654065e+01  4.9437528024e+00  2.5735521449e+02  2.5763796987e+02  5.0000000000e-01 0. 9.
       -4     1     7     0     0   105  9.7057627308e+00 -6.5010942437e+01  1.9548781599e+02  2.0624829858e+02  1.5000000000e+00 0. 9.
#pdf   21   21  2.658105e-01  3.748181e-03  1.766166e+02  1.456990e-01  1.630149e+01
</event>
<event>
    12  9999  1.000000e+00  1.824822e+02  7.879472e-03  1.069247e-01
       21    -1     0     0   101   102  0.0000000000e+00  0.0000000000e+00  1.7970106278e+03  1.7970106278e+03  0.0000000000e+00 0. 9.
       21    -1     0     0   103   101  0.0000000000e+00  0.0000000000e+00 -3.1767714253e+01  3.1767714253e+01  0.0000000000e+00 0. 9.
        6     2     1     2   103     0  7.0388320403e+01  1.7690307964e+01  2.9961333202e+02  3.5214006093e+02  1.7019697748e+02  1.359019e-13 9.
       -6     2     1     2     0   102 -7.0388320403e+01 -1.7690307964e+01  1.4656295816e+03  1.4766382812e+03  1.6469086308e+02  5.842832e-13 9.
       24     2     3     0     0     0  9.8768439250e+01  1.2386182524e+01  1.4027355982e+02  1.9013460455e+02  8.1030081786e+01  1.610272e-13 9.
        5     1     3     0   103     0 -2.8380118847e+01  5.3041254394e+00  1.5933977220e+02  1.6200545638e+02  4.8000000000e+00 0. 9.
      -24     2     4     0     0     0 -8.4794619305e+01  3.7078065887e+01  9.7635645857e+02  9.8407524447e+02  8.1038522723e+01  9.113091e-14 9.
       -5     1     4     0     0   102  1.4406298902e+01 -5.4768373851e+01  4.8927312299e+02  4.9256303668e+02  4.8000000000e+00 0. 9.
      -11     1     5     0     0     0  2.7405943321e+01 -5.2403220344e+00  1.0492150403e+02  1.0856826752e+02  5.1100000000e-04 0. 9.
       12     1     5     0     0     0  7.1362495928e+01  1.7626504559e+01  3.5352055792e+01  8.1566337032e+01  0.0000000000e+00 0. 9.
        3     1     7     0   104     0 -1.8637861656e+01 -1.8600845365e+01  9.8188403082e+01  1.0165910601e+02  5.0000000000e-01 0. 9.
       -4     1     7     0     0   104 -6.6156757649e+01  5.5678911252e+01  8.7816805549e+02  8.8241613846e+02  1.5000000000e+00 0. 9.
#pdf   21   21  2.764632e-01  4.887341e-03  1.799737e+02  1.309994e-01  1.362496e+01
</event>
<event>
    12  9999  1.000000e+00  1.787928e+02  7.877633e-03  1.071935e-01
       21    -1     0     0   101   102  0.0000000000e+00  0.0000000000e+00  5.0350171333e+02  5.0350171333e+02  0.0000000000e+00 0. 9.
       21    -1     0     0   102   103  0.0000000000e+00  0.0000000000e+00 -7.1673729683e+01  7.1673729683e+01  0.0000000000e+00 0. 9.
        6     2     1     2   101     0  2.2378866921e+01 -2.8129431212e+01  3.1661665707e+02  3.6532855420e+02  1.7868062681e+02  2.049568e-13 9.
       -6     2     1     2     0   103 -2.2378866921e+01  2.8129431212e+01  1.1521132658e+02  2.0984688881e+02  1.7166825096e+02  2.333469e-13 9.
       24     2     3     0     0     0  5.0688430491e+01  6.1740540723e+00  1.7421617120e+02  2.1606670755e+02  1.1715849040e+02  2.921739e-14 9.
        5     1     3     0   101     0 -2.8309563570e+01 -3.4303485284e+01  1.4240048586e+02  1.4926184665e+02  4.8000000000e+00 0. 9.
      -24     2     4     0     0     0 -3.5035837491e+01 -3.8484993831e+00  1.4055946837e+02  1.6685438666e+02  8.2710950553e+01  9.367381e-14 9.
       -5     1     4     0     0   103  1.2656970570e+01  3.1977930595e+01 -2.5348141791e+01  4.2992502154e+01  4.8000000000e+00 0. 9.
       -1     1     5     0     0   104  7.9480922520e+01  1.6631851862e+01  1.6528771958e+02  1.8415747252e+02  3.3000000000e-01 0. 9.
        2     1     5     0   104     0 -2.8792492028e+01 -1.0457797790e+01  8.9284516244e+00  3.1909235030e+01  3.3000000000e-01 0. 9.
       15     1     7     0     0     0 -6.1873977948e+01 -9.0783215350e+00  9.7157197164e+01  1.1555727203e+02  1.7768200000e+00  5.512633e-02 9.
      -16     1     7     0     0     0  2.6838140457e+01  5.2298221518e+00  4.3402271209e+01  5.1297114627e+01  0.0000000000e+00 0. 9.
#pdf   21   21  7.746180e-02  1.102673e-02  1.753912e+02  1.154921e+00  7.517228e+00
</event>
<event>
    12  9999  1.000000e+00  1.968661e+02  7.886308e-03  1.059382e-01
       21    -1     0     0   101   102  0.0000000000e+00  0.0000000000e+00  1.7806159792e+02  1.7806159792e+02  0.0000000000e+00 0. 9.
       21    -1     0     0   103   101  0.0000000000e+00  0.0000000000e+00 -3.0949547440e+02  3.0949547440e+02  0.0000000000e+00 0. 9.
        6     2     1     2   103     0 -7.8736737661e+01  5.6697636816e+01  6.7105338072e+01  2.0787877760e+02  1.7116180620e+02  1.583587e-13 9.
       -6     2     1     2     0   102  7.8736737661e+01 -5.6697636816e+01 -1.9853921455e+02  2.7967829472e+02  1.7142938180e+02  2.615262e-14 9.
       24     2     3     0     0     0 -3.2491007157e+01 -1.6228459073e+01  8.2337922181e+01  1.2006104209e+02  7.9473844565e+01  5.489505e-14 9.
        5     1     3     0   103     0 -4.6245730504e+01  7.2926095889e+01 -1.5232584108e+01  8.7817735510e+01  4.8000000000e+00 0. 9.
      -24     2     4     0     0     0  4.5706026031e+01 -1.7781500127e+01 -2.2370784686e+01  9.6201186373e+01  7.9680572850e+01  2.406095e-14 9.
       -5     1     4     0     0   102  3.3030711630e+01 -3.8916136690e+01 -1.7616842987e+02  1.8347710835e+02  4.8000000000e+00 0. 9.
       -1     1     5     0     0   104  6.1609921988e+00  2.6680717572e+01  1.4558192190e+01  3.1014002884e+01  3.3000000000e-01 0. 9.
        2     1     5     0   104     0 -3.8651999356e+01 -4.2909176645e+01  6.7779729991e+01  8.9047039211e+01  3.3000000000e-01 0. 9.
       13     1     7     0     0     0  4.9927405362e+01 -2.3101741596e+01 -4.5940370097e+01  7.1672624060e+01  1.0566000000e-01  4.648166e+05 9.
      -14     1     7     0     0     0 -4.2213793305e+00  5.3202414692e+00  2.3569585410e+01  2.4528562313e+01  0.0000000000e+00 0. 9.
#pdf   21   21  2.739409e-02  4.761469e-02  1.967497e+02  3.479349e+00  2.005794e+00
</event>
<event>
    12  9999  1.000000e+00  3.049353e+02  7.925967e-03  1.005899e-01
       21    -1     0     0   101   102  0.0000000000e+00  0.0000000000e+00  1.7017912723e+02  1.7017912723e+02  0.0000000000e+00 0. 9.
       21    -1     0     0   103   101  0.0000000000e+00  0.0000000000e+00 -5.4885575059e+02  5.4885575059e+02  0.0000000000e+00 0. 9.
        6     2     1     2   103     0 -2.3628992524e+02 -9.1665151433e+01 -2.1254513882e+02  3.7063891491e+02  1.6721943803e+02  2.578954e-14 9.
       -6     2     1     2     0   102  2.3628992524e+02  9.1665151433e+01 -1.6613148453e+02  3.4839596291e+02  1.7188556677e+02  5.160348e-13 9.
       24     2     3     0     0     0 -3.3864633974e+01 -1.9738006833e+01 -7.0094807998e+01  1.1283152668e+02  7.9254457022e+01  5.027156e-14 9.
        5     1     3     0   103     0 -2.0242529126e+02 -7.1927144600e+01 -1.4245033083e+02  2.5780738823e+02  4.8000000000e+00 0. 9.
      -24     2     4     0     0     0  2.5502031385e+02  9.8165786738e+01 -1.6031138589e+02  3.2718277679e+02  8.1712586692e+01  4.765242e-14 9.
       -5     1     4     0     0   102 -1.8730388610e+01 -6.5006353058e+00 -5.8200986341e+00  2.1213186111e+01  4.8000000000e+00 0. 9.
      -15     1     5     0     0     0 -4.0864753961e+01 -3.8148051678e+01 -7.3992390466e+01  9.2753613942e+01  1.7768200000e+00  3.020166e-02 9.
       16     1     5     0     0     0  7.0001199868e+00  1.8410044845e+01  3.8975824676e+00  2.0077912743e+01  0.0000000000e+00 0. 9.
       11     1     7     0     0     0  7.5326362392e+01  5.0879263712e+01 -1.6883853045e+01  9.2454447383e+01  5.1100000000e-04 0. 9.
      -12     1     7     0     0     0  1.7969395145e+02  4.7286523026e+01 -1.4342753285e+02  2.3472832941e+02  0.0000000000e+00 0. 9.
#pdf   21   21  2.618140e-02  8.443935e-02  3.036409e+02  3.575678e+00  9.843844e-01
</event>
<event>
    12  9999  1.000000e+00  2.317588e+02  7.901051e-03  1.038777e-01
       21    -1     0     0   101   102  0.0000000000e+00  0.0000000000e+00  1.8149166201e+02  1.8149166201e+02  0.0000000000e+00 0. 9.
       21    -1     0     0   102   103  0.0000000000e+00  0.0000000000e+00 -3.3366125481e+02  3.3366125481e+02  0.0000000000e+00 0. 9.
        6     2     1     2   101     0  1.5530717690e+02 -2.8122867133e+01 -1.6253003445e+02  2.8265016082e+02  1.6900853961e+02  1.413033e-13 9.
       -6     2     1     2     0   103 -1.5530717690e+02  2.8122867133e+01  1.0360441654e+01  2.3250275599e+02  1.7040826840e+02  1.413307e-13 9.
       24     2     3     0     0     0  7.5395858969e+01  1.8909663816e+01 -1.4811539916e+02  1.8868900176e+02  8.7311264927e+01  2.050623e-14 9.
        5     1     3     0   101     0  7.9911317935e+01 -4.7032530949e+01 -1.4414635295e+01  9.3961159062e+01  4.8000000000e+00 0. 9.
      -24     2     4     0     0     0 -6.6561799515e+01 -1.9105781911e+01  5.5347848408e+01  1.2226122995e+02  8.4195724163e+01  4.617208e-14 9.
       -5     1     4     0     0   103 -8.8745377389e+01  4.7228649044e+01 -4.4987406754e+01  1.1024152605e+02  4.8000000000e+00 0. 9.
       -3     1     5     0     0   104  6.9011681065e+01 -8.1333548599e+00 -1.4486865788e+02  1.6067340047e+02  5.0000000000e-01 0. 9.
        4     1     5     0   104     0  6.3841779048e+00  2.7043018676e+01 -3.2467412801e+00  2.8015601289e+01  1.5000000000e+00 0. 9.
       11     1     7     0     0     0 -2.5415786848e+01  2.2026486117e+01  5.4540050920e+01  6.4076091223e+01  5.1100000000e-04 0. 9.
      -12     1     7     0     0     0 -4.1146012666e+01 -4.1132268028e+01  8.0779748840e-01  5.8185138723e+01  0.0000000000e+00 0. 9.
#pdf   21   21  2.792179e-02  5.133250e-02  2.312468e+02  3.398129e+00  1.829320e+00
</event>
<event>
    12  9999  1.000000e+00  2.543428e+02  7.909477e-03  1.027395e-01
       21    -1     0     0   101   102  0.0000000000e+00  0.0000000000e+00  2.6970076668e+02  2.6970076668e+02  0.0000000000e+00 0. 9.
       21    -1     0     0   103   101  0.0000000000e+00  0.0000000000e+00 -2.9076345478e+02  2.9076345478e+02  0.0000000000e+00 0. 9.
        6     2     1     2   103     0 -1.1219288109e+02 -1.5290410191e+02 -1.2779087651e+02  2.8481347338e+02  1.6976837028e+02  1.335638e-13 9.
       -6     2     1     2     0   102  1.1219288109e+02  1.5290410191e+02  1.0672818841e+02  2.7565074808e+02  1.6919078512e+02  1.033461e-14 9.
       24     2     3     0     0     0 -5.4066855006e+01 -4.0136672846e+01  1.5762171983e+00  1.0355671378e+02  7.8659590579e+01  4.968353e-14 9.
        5     1     3     0   103     0 -5.8126026085e+01 -1.1276742906e+02 -1.2936709371e+02  1.8125675960e+02  4.8000000000e+00 0. 9.
      -24     2     4     0     0     0  8.3311449848e+01  2.0693615938e+01  6.2573607761e+01  1.3322035574e+02  8.0393926255e+01  2.067236e-13 9.
       -5     1     4     0     0   102  2.8881431244e+01  1.3221048597e+02  4.4154580651e+01  1.4243039234e+02  4.8000000000e+00 0. 9.
       -1     1     5     0     0   104 -3.2665924644e+01 -1.1339524590e+01 -3.7157207897e+01  5.0758392897e+01  3.3000000000e-01 0. 9.
        2     1     5     0   104     0 -2.1400930362e+01 -2.8797148256e+01  3.8733425095e+01  5.2798320879e+01  3.3000000000e-01 0. 9.
        3     1     7     0   105     0  1.5118057916e+01  4.1479095969e+01  3.6538514406e+01  5.7309546435e+01  5.0000000000e-01 0. 9.
       -4     1     7     0     0   105  6.8193391932e+01 -2.0785480031e+01  2.6035093355e+01  7.5910809305e+01  1.5000000000e+00 0. 9.
#pdf   21   21  4.149243e-02  4.473284e-02  2.541504e+02  2.285546e+00  2.111205e+00
</event>
<event>
    12  9999  1.000000e+00  2.754460e+02  7.916714e-03  1.017837e-01
       21    -1     0     0   101   102  0.0000000000e+00  0.0000000000e+00  2.0429125070e+02  2.0429125070e+02  0.0000000000e+00 0. 9.
       21    -1     0     0   102   103  0.0000000000e+00  0.0000000000e+00 -9.1491103109e+02  9.1491103109e+02  0.0000000000e+00 0. 9.
        6     2     1     2   101     0 -3.3503773953e+01 -2.1367124302e+02  7.5941157135e+01  2.8584998317e+02  1.7077836681e+02  9.233965e-15 9.
       -6     2     1     2     0   103  3.3503773953e+01  2.1367124302e+02 -7.8656093753e+02  8.3335229862e+02  1.7035269943e+02  1.302150e-13 9.
       24     2     3     0     0     0  8.3569237719e+00 -2.1846533447e+02  7.2885969427e+01  2.4333321591e+02  7.8113692034e+01  2.229377e-14 9.
        5     1     3     0   101     0 -4.1860697725e+01  4.7940914526e+00  3.0551877077e+00  4.2516767267e+01  4.8000000000e+00 0. 9.
      -24     2     4     0     0     0  6.0804300693e+01  1.8818526318e+02 -7.5422388634e+02  7.8371784679e+02  7.9051479376e+01  5.815773e-14 9.
       -5     1     4     0     0   103 -2.7300526739e+01  2.5485979842e+01 -3.2337051192e+01  4.9634451831e+01  4.8000000000e+00 0. 9.
       -3     1     5     0     0   104  2.8619873320e+01 -6.0030095397e+01 -2.8260847790e+00  6.6565353280e+01  5.0000000000e-01 0. 9.
        4     1     5     0   104     0 -2.0262949548e+01 -1.5843523908e+02  7.5712054206e+01  1.7676786263e+02  1.5000000000e+00 0. 9.
        3     1     7     0   105     0  1.1237786837e+01  3.7689383206e+01 -3.0171147586e+02  3.0426442797e+02  5.0000000000e-01 0. 9.
       -4     1     7     0     0   105  4.9566513855e+01  1.5049587997e+02 -4.5251241048e+02  4.7945341882e+02  1.5000000000e+00 0. 9.
#pdf   21   21  3.142942e-02  1.407555e-01  2.753143e+02  3.012940e+00  4.737722e-01
</event>
<event>
    12  9999  1.000000e+00  1.884944e+02  7.882391e-03  1.065010e-01
       21    -1     0     0   101   102  0.0000000000e+00  0.0000000000e+00  1.7115356591e+02  1.7115356591e+02  0.0000000000e+00 0. 9.
       21    -1     0     0   103   101  0.0000000000e+00  0.0000000000e+00 -5.1357431386e+02  5.1357431386e+02  0.0000000000e+00 0. 9.
        6     2     1     2   103     0  7.4463409038e+01  3.2893870730e+01 -4.3535416474e+02  4.7428144814e+02  1.6965505380e+02  1.150478e-13 9.
       -6     2     1     2     0   102 -7.4463409038e+01 -3.2893870730e+01  9.2933416787e+01  2.1044643163e+02  1.7036512147e+02  2.875213e-13 9.
       24     2     3     0     0     0  9.1064657140e+01  7.2963964062e+01 -2.9695223064e+02  3.2916305103e+02  8.0939329437e+01  1.277658e-13 9.
        5     1     3     0   103     0 -1.6601248102e+01 -4.0070093332e+01 -1.3840193409e+02  1.4511839711e+02  4.8000000000e+00 0. 9.
      -24     2     4     0     0     0 -2.4990812077e+00 -7.0039501216e+01  6.5397386265e+01  1.2477300914e+02  7.9873077703e+01  7.939759e-14 9.
       -5     1     4     0     0   102 -7.1964327830e+01  3.7145630486e+01  2.7536030522e+01  8.5673422490e+01  4.8000000000e+00 0. 9.
      -15     1     5     0     0     0  7.9063092518e+01  9.0662850364e+01 -2.5960536125e+02  2.8612728936e+02  1.7768200000e+00  1.483804e-01 9.
       16     1     5     0     0     0  1.2001564622e+01 -1.7698886302e+01 -3.7346869391e+01  4.3035761676e+01  0.0000000000e+00 0. 9.
        3     1     7     0   104     0 -4.0127176117e+01 -4.5322251520e+01  3.0345831522e+01  6.7715701552e+01  5.0000000000e-01 0. 9.
       -2     1     7     0     0   104  3.7628094910e+01 -2.4717249696e+01  3.5051554743e+01  5.7057307586e+01  3.3000000000e-01 0. 9.
#pdf   21   21  2.633132e-02  7.901143e-02  1.881745e+02  3.613904e+00  1.119969e+00
</event>
<event>
    12  9999  1.000000e+00  2.737125e+02  7.916140e-03  1.018587e-01
       21    -1     0     0   101   102  0.0000000000e+00  0.0000000000e+00  1.2199064417e+02  1.2199064417e+02  0.0000000000e+00 0. 9.
       21    -1     0     0   102   103  0.0000000000e+00  0.0000000000e+00 -8.6430519757e+02  8.6430519757e+02  0.0000000000e+00 0. 9.
        6     2     1     2   101     0 -2.1499393651e+02 -4.3747604543e+00 -1.0509497927e+02  2.9246969456e+02  1.6808342067e+02  4.249352e-13 9.
       -6     2     1     2     0   103  2.1499393651e+02  4.3747604543e+00 -6.3721957413e+02  6.9382614718e+02  1.7060013363e+02  9.015397e-14 9.
       24     2     3     0     0     0 -1.8923633105e+02  5.0104531956e+01 -8.3893160853e+01  2.2840718880e+02  8.2528348722e+01  9.740174e-14 9.
        5     1     3     0   101     0 -2.5757605455e+01 -5.4479292411e+01 -2.1201818414e+01  6.4062505761e+01  4.8000000000e+00 0. 9.
      -24     2     4     0     0     0  1.9481015274e+02  3.0914230875e+01 -3.8966411990e+02  4.4398925732e+02  7.9885223892e+01  1.198460e-14 9.
       -5     1     4     0     0   103  2.0183783768e+01 -2.6539470420e+01 -2.4755545422e+02  2.4983688985e+02  4.8000000000e+00 0. 9.
      -13     1     5     0     0     0 -6.5069549648e+01  1.5694897886e+00  9.2977793197e+00  6.5749292422e+01  1.0566000000e-01  1.349827e+05 9.
       14     1     5     0     0     0 -1.2416678141e+02  4.8535042168e+01 -9.3190940173e+01  1.6265789638e+02  0.0000000000e+00 0. 9.
        1     1     7     0   104     0  1.0448690904e+02 -2.3730712063e+01 -1.8965188969e+02  2.1782701627e+02  3.3000000000e-01 0. 9.
       -2     1     7     0     0   104  9.0323243702e+01  5.4644942937e+01 -2.0001223022e+02  2.2616224105e+02  3.3000000000e-01 0. 9.
#pdf   21   21  1.876779e-02  1.329700e-01  2.729351e+02  4.845888e+00  5.193641e-01
</event>
<event>
    12  9999  1.000000e+00  1.845770e+02  7.880499e-03  1.067751e-01
       21    -1     0     0   101   102  0.0000000000e+00  0.0000000000e+00  8.4835144699e+02  8.4835144699e+02  0.0000000000e+00 0. 9.
       21    -1     0     0   102   103  0.0000000000e+00  0.0000000000e+00 -7.2293628112e+01  7.2293628112e+01  0.0000000000e+00 0. 9.
        6     2     1     2   101     0 -2.8090923831e+01 -6.1771224978e+01  6.9517501598e+02  7.1931500970e+02  1.7187494322e+02  5.791316e-14 9.
       -6     2     1     2     0   103  2.8090923831e+01  6.1771224978e+01  8.0882802904e+01  2.0133006540e+02  1.7142632001e+02  1.245592e-13 9.
       24     2     3     0     0     0 -7.6226786411e+01 -6.6649247411e+01  5.7601207348e+02  5.9061495829e+02  8.2361854112e+01  2.141986e-13 9.
        5     1     3     0   101     0  4.8135862580e+01  4.8780224336e+00  1.1916294249e+02  1.2870005141e+02  4.8000000000e+00 0. 9.
      -24     2     4     0     0     0  1.0413074512e+01 -3.1420461795e+01  2.5605180489e+01  9.1439882129e+01  8.1301594300e+01  1.940146e-14 9.
       -5     1     4     0     0   103  1.7677849319e+01  9.3191686772e+01  5.5277622415e+01  1.0989018327e+02  4.8000000000e+00 0. 9.
       -3     1     5     0     0   104 -4.3119699181e+01 -8.2511203425e+01  4.3888684509e+02  4.4865278328e+02  5.0000000000e-01 0. 9.
        4     1     5     0   104     0 -3.3107087230e+01  1.5861956014e+01  1.3712522839e+02  1.4196217502e+02  1.5000000000e+00 0. 9.
       15     1     7     0     0     0  2.1895670846e+01  1.6792836501e+01  3.1052927628e+01  4.1579576274e+01  1.7768200000e+00  1.418745e-02 9.
      -16     1     7     0     0     0 -1.1482596333e+01 -4.8213298295e+01 -5.4477471389e+00  4.9860305855e+01  0.0000000000e+00 0. 9.
#pdf   21   21  1.305156e-01  1.112210e-02  1.843686e+02  5.618086e-01  7.471410e+00
</event>
<event>
    12  9999  1.000000e+00  2.733702e+02  7.916026e-03  1.018736e-01
       21    -1     0     0   101   102  0.0000000000e+00  0.0000000000e+00  4.7178891047e+02  4.7178891047e+02  0.0000000000e+00 0. 9.
       21    -1     0     0   102   103  0.0000000000e+00  0.0000000000e+00 -1.5899782692e+02  1.5899782692e+02  0.0000000000e+00 0. 9.
        6     2     1     2   101     0  8.8680488938e+01  1.9230872032e+02  1.3648302482e+02  3.0459401254e+02  1.7118125884e+02  1.510016e-13 9.
       -6     2     1     2     0   103 -8.8680488938e+01 -1.9230872032e+02  1.7630805873e+02  3.2619272486e+02  1.7455740931e+02  9.431048e-14 9.
       24     2     3     0     0     0  1.0346974765e+02  2.1002548397e+02  1.3244311817e+02  2.8067818654e+02  8.0139704590e+01  1.041512e-13 9.
        5     1     3     0   101     0 -1.4789258715e+01 -1.7716763646e+01  4.0399066561e+00  2.3915826000e+01  4.8000000000e+00 0. 9.
      -24     2     4     0     0     0  5.2296119338e+00 -1.4172790049e+02  1.4239259937e+02  2.1416226130e+02  7.3997805319e+01  7.355332e-14 9.
       -5     1     4     0     0   103 -9.3910100872e+01 -5.0580819840e+01  3.3915459359e+01  1.1203046356e+02  4.8000000000e+00 0. 9.
       -1     1     5     0     0   104  1.8607526202e+01  6.5715732610e+01  1.8096166606e+00  6.8324089136e+01  3.3000000000e-01 0. 9.
        4     1     5     0   104     0  8.4862221452e+01  1.4430975136e+02  1.3063350151e+02  2.1235409740e+02  1.5000000000e+00 0. 9.
       11     1     7     0     0     0 -2.8965120509e+01 -5.0785424885e+01  3.0392029242e+01  6.5892435291e+01  5.1100000000e-04 0. 9.
      -12     1     7     0     0     0  3.4194732443e+01 -9.0942475600e+01  1.1200057013e+02  1.4826982601e+02  0.0000000000e+00 0. 9.
#pdf   21   21  7.258291e-02  2.446120e-02  2.723048e+02  1.205428e+00  3.822357e+00
</event>
<event>
    12  9999  1.000000e+00  1.893707e+02  7.882809e-03  1.064406e-01
       21    -1     0     0   101   102  0.0000000000e+00  0.0000000000e+00  2.6027778556e+02  2.6027778556e+02  0.0000000000e+00 0. 9.
       21    -1     0     0   103   101  0.0000000000e+00  0.0000000000e+00 -1.6812626424e+02  1.6812626424e+02  0.0000000000e+00 0. 9.
        6     2     1     2   103     0 -1.3867436655e+01  7.9938267505e+01 -4.4655994779e+01  1.9583457297e+02  1.7255315033e+02  1.238921e-13 9.
       -6     2     1     2     0   102  1.3867436655e+01 -7.9938267505e+01  1.3680751609e+02  2.3256947683e+02  1.6967566909e+02  2.990025e-13 9.
       24     2     3     0     0     0  2.7887375689e+01 -2.3623615535e+00 -5.7934677250e+01  1.0247386761e+02  7.9757007465e+01  6.432811e-14 9.
        5     1     3     0   103     0 -4.1754812344e+01  8.2300629059e+01  1.3278682472e+01  9.3360705361e+01  4.8000000000e+00 0. 9.
      -24     2     4     0     0     0  1.5296934995e+01 -6.0754541460e+01  1.0532216025e+01  1.0474713833e+02  8.3282200299e+01  1.924440e-15 9.
       -5     1     4     0     0   102 -1.4294983400e+00 -1.9183726045e+01  1.2627530007e+02  1.2782233849e+02  4.8000000000e+00 0. 9.
       -1     1     5     0     0   104  2.0164539802e+01  2.2418776783e+01 -6.8162258418e+01  7.4534640205e+01  3.3000000000e-01 0. 9.
        4     1     5     0   104     0  7.7228358875e+00 -2.4781138336e+01  1.0227581168e+01  2.7939227404e+01  1.5000000000e+00 0. 9.
        1     1     7     0   105     0  1.6343306452e+01  1.7305046444e+01 -6.8171092512e+00  2.4761869412e+01  3.3000000000e-01 0. 9.
       -4     1     7     0     0   105 -1.0463714574e+00 -7.8059587905e+01  1.7349325277e+01  7.9985268922e+01  1.5000000000e+00 0. 9.
#pdf   21   21  4.004274e-02  2.586558e-02  1.880752e+02  2.409771e+00  3.673561e+00
</event>
<event>
    12  9999  1.000000e+00  1.922304e+02  7.884160e-03  1.062460e-01
       21    -1     0     0   101   102  0.0000000000e+00  0.0000000000e+00  5.5478251759e+02  5.5478251759e+02  0.0000000000e+00 0. 9.
       21    -1     0     0   102   103  0.0000000000e+00  0.0000000000e+00 -8.7457418296e+01  8.7457418296e+01  0.0000000000e+00 0. 9.
        6     2     1     2   101     0 -6.8231974784e+01 -6.2499435032e+01  3.8831103961e+02  4.3229160689e+02  1.6591801633e+02  1.409226e-13 9.
       -6     2     1     2     0   103  6.8231974784e+01  6.2499435032e+01  7.9014059689e+01  2.0994832900e+02  1.7109441095e+02  3.030794e-13 9.
       24     2     3     0     0     0 -4.0970944227e+01  2.5011783569e+00  3.2649092771e+02  3.3841397503e+02  7.9011508385e+01  2.926830e-14 9.
        5     1     3     0   101     0 -2.7261030557e+01 -6.5000613388e+01  6.1820111897e+01  9.3877631856e+01  4.8000000000e+00 0. 9.
      -24     2     4     0     0     0  1.0741093562e+02  7.5614982499e+01  5.6604812307e+01  1.6270192251e+02  7.7544027124e+01  4.698996e-14 9.
       -5     1     4     0     0   103 -3.9178960839e+01 -1.3115547467e+01  2.2409247381e+01  4.7246406488e+01  4.8000000000e+00 0. 9.
       -1     1     5     0     0   104 -3.3999187254e+01 -1.8384373610e+01  3.0568361540e+02  3.0811769108e+02  3.3000000000e-01 0. 9.
        2     1     5     0   104     0 -6.9717569733e+00  2.0885551967e+01  2.0807312304e+01  3.0296283957e+01  3.3000000000e-01 0. 9.
        3     1     7     0   105     0  1.2538743687e+01 -1.5957763189e+01  1.1522240298e+01  2.3342714511e+01  5.0000000000e-01 0. 9.
       -4     1     7     0     0   105  9.4872191936e+01  9.1572745687e+01  4.5082572009e+01  1.3935920800e+02  1.5000000000e+00 0. 9.
#pdf   21   21  8.535116e-02  1.345499e-02  1.899752e+02  1.014470e+00  6.428186e+00
</event>
<event>
    12  9999  1.000000e+00  1.753496e+02  7.875884e-03  1.074507e-01
       21    -1     0     0   101   102  0.0000000000e+00  0.0000000000e+00  1.7733798766e+02  1.7733798766e+02  0.0000000000e+00 0. 9.
       21    -1     0     0   103   101  0.0000000000e+00  0.0000000000e+00 -5.0931190956e+02  5.0931190956e+02  0.0000000000e+00 0. 9.
        6     2     1     2   103     0  3.6658873864e+01  2.9216039504e+00 -4.4464635089e+02  4.7778218090e+02  1.7091818575e+02  5.221734e-14 9.
       -6     2     1     2     0   102 -3.6658873864e+01 -2.9216039504e+00  1.1267242900e+02  2.0886771632e+02  1.7198324879e+02  5.519085e-13 9.
       24     2     3     0     0     0  2.6304191747e+01  2.2147505835e+01 -4.4694374714e+02  4.5530613199e+02  7.9765520089e+01  9.780591e-14 9.
        5     1     3     0   103     0  1.0354682117e+01 -1.9225901885e+01  2.2973962546e+00  2.2476048910e+01  4.8000000000e+00 0. 9.
      -24     2     4     0     0     0 -4.6591824980e+01  5.7853864999e+01  7.6599697192e+01  1.3733728138e+02  8.6464717634e+01  4.927949e-13 9.
       -5     1     4     0     0   102  9.9329511156e+00 -6.0775468949e+01  3.6072731803e+01  7.1530434946e+01  4.8000000000e+00 0. 9.
       -1     1     5     0     0   104  3.4475537252e+01  3.5806578030e+01 -1.5175364697e+02  1.5968704383e+02  3.3000000000e-01 0. 9.
        2     1     5     0   104     0 -8.1713455054e+00 -1.3659072194e+01 -2.9519010017e+02  2.9561908815e+02  3.3000000000e-01 0. 9.
        1     1     7     0   105     0  8.3943047883e+00 -1.7947083690e+01  8.5679331664e+00  2.1588898642e+01  3.3000000000e-01 0. 9.
       -2     1     7     0     0   105 -5.4986129768e+01  7.5800948689e+01  6.8031764026e+01  1.1574838273e+02  3.3000000000e-01 0. 9.
#pdf   21   21  2.728277e-02  7.835568e-02  1.748297e+02  3.505082e+00  1.138878e+00
</event>
<event>
    12  9999  1.000000e+00  1.858933e+02  7.881139e-03  1.066822e-01
       21    -1     0     0   101   102  0.0000000000e+00  0.0000000000e+00  7.9201722798e+01  7.9201722798e+01  0.0000000000e+00 0. 9.
       21    -1     0     0   103   101  0.0000000000e+00  0.0000000000e+00 -1.0275846788e+03  1.0275846788e+03  0.0000000000e+00 0. 9.
        6     2     1     2   103     0  6.5434000819e+01  5.7071336091e+01 -8.9998776050e+02  9.2018864844e+02  1.7096910187e+02  2.041387e-13 9.
       -6     2     1     2     0   102 -6.5434000819e+01 -5.7071336091e+01 -4.8395195489e+01  1.8659775315e+02  1.5791732225e+02  1.470237e-13 9.
       24     2     3     0     0     0  4.8385948801e+00 -1.5443659877e+01 -5.9700865526e+02  6.0277786400e+02  8.1608211893e+01  7.463007e-14 9.
        5     1     3     0   103     0  6.0595405939e+01  7.2514995968e+01 -3.0297910524e+02  3.1741078443e+02  4.8000000000e+00 0. 9.
      -24     2     4     0     0     0 -9.4231080414e+01 -5.8410318477e+01 -8.4766480192e+00  1.3712457760e+02  8.0249824917e+01  1.148360e-14 9.
       -5     1     4     0     0   102  2.8797079595e+01  1.3389823866e+00 -3.9918547470e+01  4.9473175552e+01  4.8000000000e+00 0. 9.
       -3     1     5     0     0   104 -1.7189897823e+01  2.8208902324e+01 -1.9111149792e+02  1.9394609920e+02  5.0000000000e-01 0. 9.
        2     1     5     0   104     0  2.2028492703e+01 -4.3652562200e+01 -4.0589715734e+02  4.0883176481e+02  3.3000000000e-01 0. 9.
        1     1     7     0   105     0 -3.2129506891e+01 -2.3262364000e+01 -4.2442792867e+01  5.8094254090e+01  3.3000000000e-01 0. 9.
       -2     1     7     0     0   105 -6.2101573523e+01 -3.5147954477e+01  3.3966144848e+01  7.9030323508e+01  3.3000000000e-01 0. 9.
#pdf   21   21  1.218488e-02  1.580900e-01  1.802127e+02  6.954866e+00  4.149718e-01
</event>
<event>
    12  9999  1.000000e+00  2.058035e+02  7.890314e-03  1.053694e-01
       21    -1     0     0   101   102  0.0000000000e+00  0.0000000000e+00  2.4973791229e+02  2.4973791229e+02  0.0000000000e+00 0. 9.
       21    -1     0     0   102   103  0.0000000000e+00  0.0000000000e+00 -1.6991460587e+02  1.6991460587e+02  0.0000000000e+00 0. 9.
        6     2     1     2   101     0 -8.1908012066e+01  7.8713627012e+01  3.0773646740e+01  2.0759838065e+02  1.7101261005e+02  2.624181e-13 9.
       -6     2     1     2     0   103  8.1908012066e+01 -7.8713627012e+01  4.9049659681e+01  2.1205413752e+02  1.7221013503e+02  1.776944e-13 9.
       24     2     3     0     0     0  7.8838780291e+00  1.3763013868e+01 -2.1853555561e+01  8.4822861520e+01  8.0409973650e+01  8.784245e-14 9.
        5     1     3     0   101     0 -8.9791890095e+01  6.4950613144e+01  5.2627202301e+01  1.2277551913e+02  4.8000000000e+00 0. 9.
      -24     2     4     0     0     0  1.3150600893e+00 -7.1687309377e+01  6.8981340408e+01  1.2859813148e+02  8.1475483347e+01  1.889454e-13 9.
       -5     1     4     0     0   103  8.0592951977e+01 -7.0263176353e+00 -1.9931680727e+01  8.3456006042e+01  4.8000000000e+00 0. 9.
      -11     1     5     0     0     0  6.0066757658e-01  4.2097879614e+01 -3.3022205134e+01  5.3507553688e+01  5.1100000000e-04 0. 9.
       12     1     5     0     0     0  7.2832104525e+00 -2.8334865746e+01  1.1168649573e+01  3.1315307832e+01  0.0000000000e+00 0. 9.
        3     1     7     0   104     0  1.7764740721e+01 -6.4783665607e+01  1.1196709555e+01  6.8103785850e+01  5.0000000000e-01 0. 9.
       -4     1     7     0     0   104 -1.6449680631e+01 -6.9036437699e+00  5.7784630853e+01  6.0494345628e+01  1.5000000000e+00 0. 9.
#pdf   21   21  3.842122e-02  2.614071e-02  2.053048e+02  2.501984e+00  3.628323e+00
</event>
<event>
    12  9999  1.000000e+00  2.120521e+02  7.893015e-03  1.049897e-01
       21    -1     0     0   101   102  0.0000000000e+00  0.0000000000e+00  1.5403474795e+02  1.5403474795e+02  0.0000000000e+00 0. 9.
       21    -1     0     0   103   101  0.0000000000e+00  0.0000000000e+00 -7.7393421413e+02  7.7393421413e+02  0.0000000000e+00 0. 9.
        6     2     1     2   103     0  4.6368932390e+01  1.1579206117e+02 -6.7570752131e+02  7.0797873750e+02  1.7057361776e+02  4.066201e-13 9.
       -6     2     1     2     0   102 -4.6368932390e+01 -1.1579206117e+02  5.5808055138e+01  2.1999022457e+02  1.7240440994e+02  9.155462e-15 9.
       24     2     3     0     0     0  3.2148537469e+01  1.4863579711e+02 -5.9802160371e+02  6.2231035118e+02  8.0710631437e+01  7.158078e-14 9.
        5     1     3     0   103     0  1.4220394922e+01 -3.2843735947e+01 -7.7685917600e+01  8.5668386328e+01  4.8000000000e+00 0. 9.
      -24     2     4     0     0     0 -5.5835940744e+01 -2.6375846275e+01  7.6331289803e+01  1.2763695233e+02  8.1556043621e+01  3.430475e-14 9.
       -5     1     4     0     0   102  9.4670083541e+00 -8.9416214892e+01 -2.0523234665e+01  9.2353272243e+01  4.8000000000e+00 0. 9.
       -3     1     5     0     0   104  2.7455834093e+01  1.0824167858e+02 -2.7611675933e+02  2.9784358075e+02  5.0000000000e-01 0. 9.
        4     1     5     0   104     0  4.6927033753e+00  4.0394118537e+01 -3.2190484438e+02  3.2446677043e+02  1.5000000000e+00 0. 9.
        1     1     7     0   105     0 -1.9970947209e+01  7.2105000153e+00 -1.3557795512e+01  2.5194300190e+01  3.3000000000e-01 0. 9.
       -2     1     7     0     0   105 -3.5864993535e+01 -3.3586346291e+01  8.9889085315e+01  1.0244265214e+02  3.3000000000e-01 0. 9.
#pdf   21   21  2.369765e-02  1.190668e-01  2.113131e+02  3.964440e+00  6.341236e-01
</event>
<event>
    12  9999  1.000000e+00  1.981646e+02  7.886901e-03  1.058536e-01
       21    -1     0     0   101   102  0.0000000000e+00  0.0000000000e+00  2.3552349631e+02  2.3552349631e+02  0.0000000000e+00 0. 9.
       21    -1     0     0   103   101  0.0000000000e+00  0.0000000000e+00 -1.6940135663e+02  1.6940135663e+02  0.0000000000e+00 0. 9.
        6     2     1     2   103     0  1.4975129575e+00 -9.8904565544e+01  7.4886773506e+00  1.9721288536e+02  1.7044789888e+02  1.777918e-13 9.
       -6     2     1     2     0   102 -1.4975129575e+00  9.8904565544e+01  5.8633462326e+01  2.0771196758e+02  1.7297983392e+02  2.409399e-14 9.
       24     2     3     0     0     0  1.0189477605e+01  9.4011265449e+00  2.7465393680e+01  8.6633581764e+01  8.0986560645e+01  1.511862e-13 9.
        5     1     3     0   103     0 -8.6919646474e+00 -1.0830569209e+02 -1.9976716329e+01  1.1057930359e+02  4.8000000000e+00 0. 9.
      -24     2     4     0     0     0 -5.6094927274e+01  6.2111188663e+01 -5.5968161848e+00  1.1560768479e+02  7.9557349170e+01  3.711372e-15 9.
       -5     1     4     0     0   102  5.4597414316e+01  3.6793376881e+01  6.4230278511e+01  9.2104282799e+01  4.8000000000e+00 0. 9.
      -13     1     5     0     0     0 -2.7173060146e+01  4.9754540399e+00  3.8536086614e+01  4.7414886651e+01  1.0566000000e-01  3.977508e+05 9.
       14     1     5     0     0     0  3.7362537751e+01  4.4256725050e+00 -1.1070692934e+01  3.9218695113e+01  0.0000000000e+00 0. 9.
        1     1     7     0   104     0  1.1360916493e+01 -1.0711863218e+01  3.2374713339e+00  1.5950064507e+01  3.3000000000e-01 0. 9.
       -2     1     7     0     0   104 -6.7455843767e+01  7.2823051880e+01 -8.8342875187e+00  9.9657620278e+01  3.3000000000e-01 0. 9.
#pdf   21   21  3.623438e-02  2.606175e-02  1.970707e+02  2.658763e+00  3.643164e+00
</event>
<event>
    12  9999  1.000000e+00  2.015891e+02  7.888447e-03  1.056337e-01
       21    -1     0     0   101   102  0.0000000000e+00  0.0000000000e+00  1.0900990948e+03  1.0900990948e+03  0.0000000000e+00 0. 9.
       21    -1     0     0   103   101  0.0000000000e+00  0.0000000000e+00 -3.7357183532e+01  3.7357183532e+01  0.0000000000e+00 0. 9.
        6     2     1     2   103     0  1.2168244639e+01  1.0736767974e+02  5.5292270545e+02  5.8863474411e+02  1.7056218497e+02  1.583638e-13 9.
       -6     2     1     2     0   102 -1.2168244639e+01 -1.0736767974e+02  4.9981920582e+02  5.3882153423e+02  1.6980436510e+02  4.221393e-14 9.
       24     2     3     0     0     0  2.4112017840e+01  1.0991571854e+02  2.6313136883e+02  2.9854647307e+02  8.5023671584e+01  1.110004e-14 9.
        5     1     3     0   103     0 -1.1943773201e+01 -2.5480387998e+00  2.8979133662e+02  2.9008827104e+02  4.8000000000e+00 0. 9.
      -24     2     4     0     0     0 -1.6101315542e+01 -1.3740832293e+02  4.6769724145e+02  4.9440565997e+02  8.0968805002e+01  2.569519e-14 9.
       -5     1     4     0     0   102  3.9330709025e+00  3.0040643194e+01  3.2121964378e+01  4.4415874254e+01  4.8000000000e+00 0. 9.
      -11     1     5     0     0     0  4.4011491724e+01  1.0856981853e+02  2.4510190966e+02  2.7166038176e+02  5.1100000000e-04 0. 9.
       12     1     5     0     0     0 -1.9899473884e+01  1.3459000128e+00  1.8029459178e+01  2.6886091311e+01  0.0000000000e+00 0. 9.
        3     1     7     0   104     0  1.8536497208e+01 -9.7757188487e+01  3.7303117427e+02  3.8607327881e+02  5.0000000000e-01 0. 9.
       -4     1     7     0     0   104 -3.4637812750e+01 -3.9651134445e+01  9.4666067172e+01  1.0833238116e+02  1.5000000000e+00 0. 9.
#pdf   21   21  1.677076e-01  5.747259e-03  2.012695e+02  3.690382e-01  1.221556e+01
</event>
<event>
    12  9999  1.000000e+00  1.805406e+02  7.878509e-03  1.070653e-01
       21    -1     0     0   101   102  0.0000000000e+00  0.0000000000e+00  1.7736287291e+02  1.7736287291e+02  0.0000000000e+00 0. 9.
       21    -1     0     0   103   101  0.0000000000e+00  0.0000000000e+00 -3.4310997910e+02  3.4310997910e+02  0.0000000000e+00 0. 9.
        6     2     1     2   103     0 -3.8650861562e+01 -2.9067499824e+01  9.3867105012e+01  2.0557293947e+02  1.7638138051e+02  8.626657e-14 9.
       -6     2     1     2     0   102  3.8650861562e+01  2.9067499824e+01 -2.5961421121e+02  3.1489991254e+02  1.7153310937e+02  2.459608e-13 9.
       24     2     3     0     0     0 -7.3377541765e+01  3.1709270725e+01  6.4301340127e+01  1.2943534948e+02  7.8924684773e+01  3.341164e-14 9.
        5     1     3     0   103     0  3.4726680203e+01 -6.0776770548e+01  2.9565764885e+01  7.6137589990e+01  4.8000000000e+00 0. 9.
      -24     2     4     0     0     0  4.1800620179e+01  7.4348531978e-01 -5.2354627563e+01  1.0563513818e+02  8.1669644131e+01  2.429373e-14 9.
       -5     1     4     0     0   102 -3.1497586178e+00  2.8324014504e+01 -2.0725958365e+02  2.0926477437e+02  4.8000000000e+00 0. 9.
       -3     1     5     0     0   104  8.5357856028e+00  8.1920842912e+00 -1.0655079999e+01  1.5929551490e+01  5.0000000000e-01 0. 9.
        4     1     5     0   104     0 -8.1913327368e+01  2.3517186433e+01  7.4956420126e+01  1.1350579799e+02  1.5000000000e+00 0. 9.
        3     1     7     0   105     0  5.7615686044e+01  2.0479489009e+01 -1.9575115811e+01  6.4206011458e+01  5.0000000000e-01 0. 9.
       -4     1     7     0     0   105 -1.5815065864e+01 -1.9736003689e+01 -3.2779511752e+01  4.1429126718e+01  1.5000000000e+00 0. 9.
#pdf   21   21  2.728660e-02  5.278615e-02  1.782201e+02  3.502719e+00  1.804490e+00
</event>
<event>
    12  9999  1.000000e+00  1.782359e+02  7.877353e-03  1.072347e-01
       21    -1     0     0   101   102  0.0000000000e+00  0.0000000000e+00  1.5528016198e+02  1.5528016198e+02  0.0000000000e+00 0. 9.
       21    -1     0     0   103   101  0.0000000000e+00  0.0000000000e+00 -2.1756572011e+02  2.1756572011e+02  0.0000000000e+00 0. 9.
        6     2     1     2   103     0  3.7233967998e+01 -4.3227348640e+01 -7.7197598190e+01  1.9884487492e+02  1.7414029709e+02  4.727038e-13 9.
       -6     2     1     2     0   102 -3.7233967998e+01  4.3227348640e+01  1.4912040050e+01  1.7400100717e+02  1.6370403024e+02  4.330631e-15 9.
       24     2     3     0     0     0  8.5537588298e+01 -5.4461093224e+01 -3.5735530493e+01  1.3402528059e+02  8.0019110278e+01  1.248337e-13 9.
        5     1     3     0   103     0 -4.8303620300e+01  1.1233744583e+01 -4.1462067696e+01  6.4819594330e+01  4.8000000000e+00 0. 9.
      -24     2     4     0     0     0 -7.4378644063e+01 -6.2699560594e+00 -5.7423914952e+00  1.0858422282e+02  7.8651531099e+01  1.920923e-14 9.
       -5     1     4     0     0   102  3.7144676065e+01  4.9497304699e+01  2.0654431546e+01  6.5416784352e+01  4.8000000000e+00 0. 9.
       -1     1     5     0     0   104  2.6951692731e+01  1.9591566254e+01 -7.6035962402e-01  3.3330320373e+01  3.3000000000e-01 0. 9.
        2     1     5     0   104     0  5.8585895566e+01 -7.4052659478e+01 -3.4975170869e+01  1.0069496021e+02  3.3000000000e-01 0. 9.
        3     1     7     0   105     0 -3.8519900466e+01  1.3656095112e+00 -4.1993968615e+01  5.7003429909e+01  5.0000000000e-01 0. 9.
       -4     1     7     0     0   105 -3.5858743596e+01 -7.6355655705e+00  3.6251577120e+01  5.1580792914e+01  1.5000000000e+00 0. 9.
#pdf   21   21  2.388926e-02  3.347165e-02  1.733608e+02  3.955534e+00  2.889571e+00
</event>
<event>
    12  9999  1.000000e+00  2.601873e+02  7.911538e-03  1.024652e-01
        1    -1     0     0   101     0  0.0000000000e+00  0.0000000000e+00  5.6865136962e+01  5.6865136962e+01  0.0000000000e+00 0. 9.
       -1    -1     0     0     0   102  0.0000000000e+00  0.0000000000e+00 -1.3553260748e+03  1.3553260748e+03  0.0000000000e+00 0. 9.
        6     2     1     2   101     0 -1.9760315067e+02 -4.0489277806e+00 -4.0476675921e+02  4.8161742995e+02  1.7045767950e+02  7.287162e-14 9.
       -6     2     1     2     0   102  1.9760315067e+02  4.0489277806e+00 -8.9369417859e+02  9.3057378177e+02  1.6797285349e+02  1.366911e-13 9.
       24     2     3     0     0     0 -1.7148435041e+02  5.0417705256e+01 -2.6160179012e+02  3.2615664963e+02  7.7419868696e+01  1.171494e-13 9.
        5     1     3     0   101     0 -2.6118800257e+01 -5.4466633037e+01 -1.4316496909e+02  1.5546078032e+02  4.8000000000e+00 0. 9.
      -24     2     4     0     0     0  7.9915181247e+01 -5.5914887234e+01 -4.8933641583e+02  5.0516297143e+02  7.8908738641e+01  1.078365e-13 9.
       -5     1     4     0     0   102  1.1768796942e+02  5.9963815015e+01 -4.0435776276e+02  4.2541081034e+02  4.8000000000e+00 0. 9.
       -1     1     5     0     0   103 -4.7370157674e+01  3.9587512234e+01 -1.3544634623e+02  1.4885202239e+02  3.3000000000e-01 0. 9.
        2     1     5     0   103     0 -1.2411419274e+02  1.0830193022e+01 -1.2615544389e+02  1.7730462725e+02  3.3000000000e-01 0. 9.
       13     1     7     0     0     0  8.7808642445e+01 -2.4526111586e+01 -3.1869115902e+02  3.3147541966e+02  1.0566000000e-01  1.268933e+06 9.
      -14     1     7     0     0     0 -7.8934611976e+00 -3.1388775649e+01 -1.7064525681e+02  1.7368755177e+02  0.0000000000e+00 0. 9.
#pdf    1   -1  8.748483e-03  2.085117e-01  2.593806e+02  7.256270e-01  2.843694e-02
</event>
<event>
    12  9999  1.000000e+00  1.794516e+02  7.877964e-03  1.071450e-01
       21    -1     0     0   101   102  0.0000000000e+00  0.0000000000e+00  9.3814613327e+01  9.3814613327e+01  0.0000000000e+00 0. 9.
       21    -1     0     0   102   103  0.0000000000e+00  0.0000000000e+00 -1.0627708451e+03  1.0627708451e+03  0.0000000000e+00 0. 9.
        6     2     1     2   101     0  2.6270309714e+00  5.0031205059e+01 -9.7866854552e+00  1.8100856713e+02  1.7366145050e+02  6.956763e-14 9.
       -6     2     1     2     0   103 -2.6270309714e+00 -5.0031205059e+01 -9.5916954633e+02  9.7557689131e+02  1.7097961716e+02  4.233232e-14 9.
       24     2     3     0     0     0 -1.0371201401e+00  5.2811920378e+01 -7.0990795776e+01  1.1944444201e+02  8.0231584120e+01  9.179056e-14 9.
        5     1     3     0   101     0  3.6641511116e+00 -2.7807153194e+00  6.1204110321e+01  6.1564125116e+01  4.8000000000e+00 0. 9.
      -24     2     4     0     0     0 -4.8003363564e+01 -7.8239912857e+01 -7.5039501278e+02  7.6002042861e+02  7.8182925346e+01  1.127894e-13 9.
       -5     1     4     0     0   103  4.5376332592e+01  2.8208707798e+01 -2.0877453355e+02  2.1555646270e+02  4.8000000000e+00 0. 9.
       -3     1     5     0     0   104  2.4199312644e+01 -1.1317449306e+01 -2.4892853786e+01  3.6518427689e+01  5.0000000000e-01 0. 9.
        4     1     5     0   104     0 -2.5236432784e+01  6.4129369685e+01 -4.6097941990e+01  8.2926014323e+01  1.5000000000e+00 0. 9.
        1     1     7     0   105     0  1.9824929766e+01 -3.2644417435e+01 -2.0367323385e+02  2.0722350474e+02  3.3000000000e-01 0. 9.
       -2     1     7     0     0   105 -6.7828293330e+01 -4.5595495422e+01 -5.4672177893e+02  5.5279692386e+02  3.3000000000e-01 0. 9.
#pdf   21   21  1.443302e-02  1.635032e-01  1.781686e+02  6.073511e+00  3.926520e-01
</event>
<event>
    12  9999  1.000000e+00  1.984923e+02  7.887050e-03  1.058323e-01
       21    -1     0     0   101   102  0.0000000000e+00  0.0000000000e+00  3.7290416084e+02  3.7290416084e+02  0.0000000000e+00 0. 9.
       21    -1     0     0   102   103  0.0000000000e+00  0.0000000000e+00 -1.0683352386e+02  1.0683352386e+02  0.0000000000e+00 0. 9.
        6     2     1     2   101     0  9.7904675150e+01  1.9442311088e+01  1.0787619720e+02  2.2595737411e+02  1.7162788851e+02  6.317729e-14 9.
       -6     2     1     2     0   103 -9.7904675150e+01 -1.9442311088e+01  1.5819443978e+02  2.5378031059e+02  1.7150987257e+02  9.831055e-14 9.
       24     2     3     0     0     0  5.5405199096e+01 -4.1363444181e+01  1.0901114782e+02  1.5160770396e+02  7.9503427276e+01  2.420127e-14 9.
        5     1     3     0   101     0  4.2499476053e+01  6.0805755270e+01 -1.1349506173e+00  7.4349670151e+01  4.8000000000e+00 0. 9.
      -24     2     4     0     0     0  1.7221481041e+01 -1.6935357070e+00  7.7247366203e+01  1.1184892017e+02  7.9016314040e+01  9.932523e-14 9.
       -5     1     4     0     0   103 -1.1512615619e+02 -1.7748775381e+01  8.0947073581e+01  1.4193139043e+02  4.8000000000e+00 0. 9.
       -1     1     5     0     0   104 -4.2427109525e+00  1.9086518889e+01  2.8656926213e+01  3.4693286375e+01  3.3000000000e-01 0. 9.
        2     1     5     0   104     0  5.9647910049e+01 -6.0449963071e+01  8.0354221608e+01  1.1691441758e+02  3.3000000000e-01 0. 9.
        1     1     7     0   105     0 -5.6678430010e+00  3.5491438377e+01  2.5130105654e+01  4.3856558831e+01  3.3000000000e-01 0. 9.
       -2     1     7     0     0   105  2.2889324042e+01 -3.7184974084e+01  5.2117260549e+01  6.7992361334e+01  3.3000000000e-01 0. 9.
#pdf   21   21  5.736987e-02  1.643593e-02  1.984413e+02  1.632839e+00  5.454057e+00
</event>
<event>
    12  9999  1.000000e+00  2.177224e+02  7.895399e-03  1.046570e-01
       21    -1     0     0   101   102  0.0000000000e+00  0.0000000000e+00  2.2127317989e+02  2.2127317989e+02  0.0000000000e+00 0. 9.
       21    -1     0     0   103   101  0.0000000000e+00  0.0000000000e+00 -2.9395758645e+02  2.9395758645e+02  0.0000000000e+00 0. 9.
        6     2     1     2   103     0 -1.0880903631e+02 -8.3847133617e+01 -1.7026528998e+02  2.7494528264e+02  1.6653795747e+02  3.430607e-13 9.
       -6     2     1     2     0   102  1.0880903631e+02  8.3847133617e+01  9.7580883412e+01  2.4028548369e+02  1.7130480632e+02  7.984986e-13 9.
       24     2     3     0     0     0 -1.1940481735e+02 -8.1835211975e+01 -1.9002575130e+02  2.5192715422e+02  8.0018701275e+01  3.397603e-14 9.
        5     1     3     0   103     0  1.0595781034e+01 -2.0119216421e+00  1.9760461319e+01  2.3018128420e+01  4.8000000000e+00 0. 9.
      -24     2     4     0     0     0  1.1737164419e+02  1.1717633625e+02  7.7285721495e+01  2.0004759609e+02  8.0867554168e+01  1.116798e-13 9.
       -5     1     4     0     0   102 -8.5626078759e+00 -3.3329202632e+01  2.0295161918e+01  4.0237887606e+01  4.8000000000e+00 0. 9.
       -3     1     5     0     0   104 -5.0062531612e+01 -8.2447201249e+00 -1.1600207069e+02  1.2661343880e+02  5.0000000000e-01 0. 9.
        2     1     5     0   104     0 -6.9342285736e+01 -7.3590491850e+01 -7.4023680613e+01  1.2531371542e+02  3.3000000000e-01 0. 9.
        3     1     7     0   105     0  2.6336131028e+01  5.2964453439e+01 -8.0638137009e+00  5.9700085569e+01  5.0000000000e-01 0. 9.
       -4     1     7     0     0   105  9.1035513163e+01  6.4211882810e+01  8.5349535196e+01  1.4034751052e+02  1.5000000000e+00 0. 9.
#pdf   21   21  3.404203e-02  4.522424e-02  2.158811e+02  2.816101e+00  2.107169e+00
</event>
<event>
    12  9999  1.000000e+00  1.914789e+02  7.883807e-03  1.062968e-01
       21    -1     0     0   101   102  0.0000000000e+00  0.0000000000e+00  9.0598069128e+01  9.0598069128e+01  0.0000000000e+00 0. 9.
       21    -1     0     0   103   101  0.0000000000e+00  0.0000000000e+00 -4.7697653648e+02  4.7697653648e+02  0.0000000000e+00 0. 9.
        6     2     1     2   103     0  7.8276891894e+01  1.9615167627e+01 -3.0469253858e+02  3.6051375813e+02  1.7498742848e+02  4.100305e-15 9.
       -6     2     1     2     0   102 -7.8276891894e+01 -1.9615167627e+01 -8.1685928765e+01  2.0706084747e+02  1.7230663653e+02  7.406697e-14 9.
       24     2     3     0     0     0  1.1333426834e+02  4.3106094205e+01 -2.6537858611e+02  3.0263915114e+02  8.0385758067e+01  1.422142e-14 9.
        5     1     3     0   103     0 -3.5057376446e+01 -2.3490926578e+01 -3.9313952469e+01  5.7874606984e+01  4.8000000000e+00 0. 9.
      -24     2     4     0     0     0 -8.8108082275e+01 -4.7649559599e+01 -1.2474160805e+01  1.3158973869e+02  8.4420021011e+01  2.176890e-13 9.
       -5     1     4     0     0   102  9.8311903806e+00  2.8034391973e+01 -6.9211767960e+01  7.5471108788e+01  4.8000000000e+00 0. 9.
      -11     1     5     0     0     0  2.2572766584e+01 -1.9039721454e+01 -9.7987415749e+01  1.0234048285e+02  5.1100000000e-04 0. 9.
       12     1     5     0     0     0  9.0761501757e+01  6.2145815659e+01 -1.6739117036e+02  2.0029866830e+02  0.0000000000e+00 0. 9.
       13     1     7     0     0     0  3.1159759543e+00  1.2472710617e+01  1.4170246544e+01  1.9133344387e+01  1.0566000000e-01  3.152605e+05 9.
      -14     1     7     0     0     0 -9.1224058229e+01 -6.0122270216e+01 -2.6644407349e+01  1.1245639430e+02  0.0000000000e+00 0. 9.
#pdf   21   21  1.393816e-02  7.338101e-02  1.902672e+02  6.247680e+00  1.226152e+00
</event>
<event>
    12  9999  1.000000e+00  2.077647e+02  7.891170e-03  1.052487e-01
       21    -1     0     0   101   102  0.0000000000e+00  0.0000000000e+00  1.8375678027e+02  1.8375678027e+02  0.0000000000e+00 0. 9.
       21    -1     0     0   102   103  0.0000000000e+00  0.0000000000e+00 -3.1837510029e+02  3.1837510029e+02  0.0000000000e+00 0. 9.
        6     2     1     2   101     0  3.0434996922e+01  1.1215845059e+02  6.1424027028e+01  2.1590851409e+02  1.7128271450e+02  2.185618e-13 9.
       -6     2     1     2     0   103 -3.0434996922e+01 -1.1215845059e+02 -1.9604234705e+02  2.8622336647e+02  1.7316294812e+02  1.449166e-13 9.
       24     2     3     0     0     0  3.1278165811e+01  5.3926028225e+01 -3.0615854575e+01  1.0688509572e+02  8.1245018059e+01  6.471639e-15 9.
        5     1     3     0   101     0 -8.4316888865e-01  5.8232422361e+01  9.2039881603e+01  1.0902341837e+02  4.8000000000e+00 0. 9.
      -24     2     4     0     0     0 -2.4278190798e+01 -8.0401274413e+01 -3.5680445201e+01  1.2256089654e+02  8.1818602501e+01  5.524936e-13 9.
       -5     1     4     0     0   103 -6.1568061244e+00 -3.1757176173e+01 -1.6036190185e+02  1.6366246993e+02  4.8000000000e+00 0. 9.
       -3     1     5     0     0   104  1.6236772635e+00  6.5531077693e+01 -3.5634925236e+01  7.4612709159e+01  5.0000000000e-01 0. 9.
        4     1     5     0   104     0  2.9654488547e+01 -1.1605049467e+01  5.0190706613e+00  3.2272386562e+01  1.5000000000e+00 0. 9.
        1     1     7     0   105     0  1.5307535594e+01  2.3851019013e+00  1.1576907322e+01  1.9342777468e+01  3.3000000000e-01 0. 9.
       -2     1     7     0     0   105 -3.9585726392e+01 -8.2786376315e+01 -4.7257352522e+01  1.0321811907e+02  3.3000000000e-01 0. 9.
#pdf   21   21  2.827027e-02  4.898078e-02  2.069869e+02  3.372481e+00  1.939493e+00
</event>
<event>
    12  9999  1.000000e+00  1.729682e+02  7.874654e-03  1.076323e-01
       21    -1     0     0   101   102  0.0000000000e+00  0.0000000000e+00  4.0476868237e+01  4.0476868237e+01  0.0000000000e+00 0. 9.
       21    -1     0     0   103   101  0.0000000000e+00  0.0000000000e+00 -7.5607025365e+02  7.5607025365e+02  0.0000000000e+00 0. 9.
        6     2     1     2   103     0 -1.2869431765e+01  2.5675331645e+01 -4.1740413918e+02  4.5182453458e+02  1.7057065902e+02  5.564922e-14 9.
       -6     2     1     2     0   102  1.2869431765e+01 -2.5675331645e+01 -2.9818924624e+02  3.4472258731e+02  1.7056374380e+02  6.246154e-14 9.
       24     2     3     0     0     0 -5.8314832622e+01 -2.5096663654e+01 -2.4783540057e+02  2.6901403959e+02  8.3160720838e+01  6.488700e-14 9.
        5     1     3     0   103     0  4.5445400857e+01  5.0771995299e+01 -1.6956873861e+02  1.8281049499e+02  4.8000000000e+00 0. 9.
      -24     2     4     0     0     0  5.3811762208e+01 -5.7552799570e+01 -1.5348039789e+02  1.9091706669e+02  8.1762236552e+01  1.809402e-13 9.
       -5     1     4     0     0   102 -4.0942330444e+01  3.1877467925e+01 -1.4470884834e+02  1.5380552062e+02  4.8000000000e+00 0. 9.
       -3     1     5     0     0   104 -5.2733498352e+01 -2.6594874950e+01 -7.2213433021e+01  9.3290616521e+01  5.0000000000e-01 0. 9.
        4     1     5     0   104     0 -5.5813342694e+00  1.4982112958e+00 -1.7562196755e+02  1.7572342307e+02  1.5000000000e+00 0. 9.
        3     1     7     0   105     0  8.5322657625e+00  1.7191415697e+01 -5.9749894533e+01  6.2758618766e+01  5.0000000000e-01 0. 9.
       -4     1     7     0     0   105  4.5279496446e+01 -7.4744215267e+01 -9.3730503360e+01  1.2815844792e+02  1.5000000000e+00 0. 9.
#pdf   21   21  6.227210e-03  1.163185e-01  1.729648e+02  1.147908e+01  6.715777e-01
</event>
<event>
    12  9999  1.000000e+00  2.421341e+02  7.905017e-03  1.033384e-01
       21    -1     0     0   101   102  0.0000000000e+00  0.0000000000e+00  4.5034817835e+01  4.5034817835e+01  0.0000000000e+00 0. 9.
       21    -1     0     0   102   103  0.0000000000e+00  0.0000000000e+00 -1.7068039454e+03  1.7068039454e+03  0.0000000000e+00 0. 9.
        6     2     1     2   101     0  1.3967549494e+02 -9.3041077947e+01 -3.9756205705e+02  4.6416086406e+02  1.7094979511e+02  7.502249e-14 9.
       -6     2     1     2     0   103 -1.3967549494e+02  9.3041077947e+01 -1.2642070705e+03  1.2876778992e+03  1.7812627208e+02  1.603547e-13 9.
       24     2     3     0     0     0  1.2504642822e+02 -2.6701802798e+01 -3.4744288041e+02  3.7960389576e+02  8.3862787040e+01  1.588243e-14 9.
        5     1     3     0   101     0  1.4629066723e+01 -6.6339275149e+01 -5.0119176641e+01  8.4556968298e+01  4.8000000000e+00 0. 9.
      -24     2     4     0     0     0 -1.9925663220e+01  3.9558278574e+01 -3.1047815857e+02  3.2496178863e+02  8.5097518529e+01  4.116848e-13 9.
       -5     1     4     0     0   103 -1.1974983172e+02  5.3482799373e+01 -9.5372891193e+02  9.6271611053e+02  4.8000000000e+00 0. 9.
       -3     1     5     0     0   104  8.4803332296e+01  2.4012250061e+01 -2.0301385115e+02  2.2132118534e+02  5.0000000000e-01 0. 9.
        4     1     5     0   104     0  4.0243095921e+01 -5.0714052858e+01 -1.4442902925e+02  1.5828271042e+02  1.5000000000e+00 0. 9.
        3     1     7     0   105     0  1.9946938017e+01 -1.5377026654e+01 -1.2336729401e+02  1.2591295611e+02  5.0000000000e-01 0. 9.
       -4     1     7     0     0   105 -3.9872601237e+01  5.4935305228e+01 -1.8711086456e+02  1.9904883252e+02  1.5000000000e+00 0. 9.
#pdf   21   21  6.928434e-03  2.625852e-01  2.395615e+02  1.072193e+01  1.404417e-01
</event>
<event>
    12  9999  1.000000e+00  1.747725e+02  7.875588e-03  1.074944e-01
       21    -1     0     0   101   102  0.0000000000e+00  0.0000000000e+00  6.7235872886e+02  6.7235872886e+02  0.0000000000e+00 0. 9.
       21    -1     0     0   103   101  0.0000000000e+00  0.0000000000e+00 -6.2681943044e+01  6.2681943044e+01  0.0000000000e+00 0. 9.
        6     2     1     2   103     0  3.0032023287e+00  3.8578953476e+01  1.1089674054e+02  2.0622656600e+02  1.6951092763e+02  1.224440e-13 9.
       -6     2     1     2     0   102 -3.0032023287e+00 -3.8578953476e+01  4.9878004527e+02  5.2881410590e+02  1.7136356136e+02  1.020116e-13 9.
       24     2     3     0     0     0  1.1424462890e+01  4.8349855684e+00  1.3931944358e+02  1.6105508111e+02  7.9843198559e+01  8.926895e-14 9.
        5     1     3     0   103     0 -8.4212605609e+00  3.3743967907e+01 -2.8422703032e+01  4.5171484890e+01  4.8000000000e+00 0. 9.
      -24     2     4     0     0     0 -7.6817151861e+00  3.4930309975e+01  3.6999781125e+02  3.8037757369e+02  8.0681986418e+01  4.590593e-14 9.
       -5     1     4     0     0   102  4.6785128574e+00 -7.3509263450e+01  1.2878223402e+02  1.4843653222e+02  4.8000000000e+00 0. 9.
       -1     1     5     0     0   104 -4.7995509145e+00 -2.3764702131e+01  1.2101674694e+02  1.2342187284e+02  3.3000000000e-01 0. 9.
        2     1     5     0   104     0  1.6224013804e+01  2.8599687700e+01  1.8302696635e+01  3.7633208268e+01  3.3000000000e-01 0. 9.
        1     1     7     0   105     0 -4.1440684020e+01  1.9923278446e+01  1.3807270913e+02  1.4552817330e+02  3.3000000000e-01 0. 9.
       -2     1     7     0     0   105  3.3758968833e+01  1.5007031528e+01  2.3192510212e+02  2.3484940039e+02  3.3000000000e-01 0. 9.
#pdf   21   21  1.034398e-01  9.643376e-03  1.738715e+02  7.921157e-01  8.329203e+00
</event>
<event>
    12  9999  1.000000e+00  1.872475e+02  7.881793e-03  1.065875e-01
       21    -1     0     0   101   102  0.0000000000e+00  0.0000000000e+00  3.4130671009e+02  3.4130671009e+02  0.0000000000e+00 0. 9.
       21    -1     0     0   103   101  0.0000000000e+00  0.0000000000e+00 -1.0391609933e+02  1.0391609933e+02  0.0000000000e+00 0. 9.
        6     2     1     2   103     0  7.7186928450e+01 -1.9571893664e+00  9.5205468715e+01  2.1050253575e+02  1.7113031225e+02  1.520107e-14 9.
       -6     2     1     2     0   102 -7.7186928450e+01  1.9571893664e+00  1.4218514204e+02  2.3472027366e+02  1.7004511089e+02  9.198813e-14 9.
       24     2     3     0     0     0  6.4233501883e+00 -1.5698446563e-01 -1.0904456592e+01  8.2858182194e+01  8.1885817522e+01  1.412149e-13 9.
        5     1     3     0   103     0  7.0763578262e+01 -1.8002049008e+00  1.0610992531e+02  1.2764435356e+02  4.8000000000e+00 0. 9.
      -24     2     4     0     0     0  1.8024294785e+01 -4.0746899613e+01  3.3794720986e+01  8.4186757055e+01  6.2929658082e+01  9.862833e-15 9.
       -5     1     4     0     0   102 -9.5211223235e+01  4.2704088980e+01  1.0839042106e+02  1.5053351661e+02  4.8000000000e+00 0. 9.
      -13     1     5     0     0     0  1.7300966190e+01  3.7410701673e+01 -1.4233303971e+01  4.3605987395e+01  1.0566000000e-01  2.541685e+06 9.
       14     1     5     0     0     0 -1.0877616001e+01 -3.7567686138e+01  3.3288473785e+00  3.9252194799e+01  0.0000000000e+00 0. 9.
        1     1     7     0   104     0 -6.3097412649e+00 -4.9390697933e+01  1.4229058771e+01  5.1786377462e+01  3.3000000000e-01 0. 9.
       -2     1     7     0     0   104  2.4334036050e+01  8.6437983192e+00  1.9565662216e+01  3.2400379593e+01  3.3000000000e-01 0. 9.
#pdf   21   21  5.250872e-02  1.598709e-02  1.867538e+02  1.809631e+00  5.584023e+00
</event>
<event>
    12  9999  1.000000e+00  1.746933e+02  7.875547e-03  1.075004e-01
       21    -1     0     0   101   102  0.0000000000e+00  0.0000000000e+00  5.5318917925e+01  5.5318917925e+01  0.0000000000e+00 0. 9.
       21    -1     0     0   102   103  0.0000000000e+00  0.0000000000e+00 -1.0730449042e+03  1.0730449042e+03  0.0000000000e+00 0. 9.
        6     2     1     2   101     0 -2.5744876526e+01 -6.7260413425e+00 -1.1388605504e+02  2.0757638696e+02  1.7149310363e+02  4.144008e-15 9.
       -6     2     1     2     0   103  2.5744876526e+01  6.7260413425e+00 -9.0383993120e+02  9.2078743513e+02  1.7382416739e+02  7.182773e-14 9.
       24     2     3     0     0     0 -4.6413528201e+01  5.2966388060e+01 -8.7502284016e+01  1.3895042494e+02  8.1798025759e+01  1.868543e-14 9.
        5     1     3     0   101     0  2.0668651675e+01 -5.9692429403e+01 -2.6383771028e+01  6.8625962024e+01  4.8000000000e+00 0. 9.
      -24     2     4     0     0     0  3.8191632693e+01 -5.3647607124e+01 -4.1078388871e+02  4.2386973551e+02  8.1150988256e+01  1.879851e-14 9.
       -5     1     4     0     0   103 -1.2446756167e+01  6.0373648466e+01 -4.9305604249e+02  4.9691769963e+02  4.8000000000e+00 0. 9.
      -15     1     5     0     0     0  1.8230936877e+01  2.7036645900e+01 -8.7356364832e+00  3.3805557458e+01  1.7768200000e+00  9.222894e-02 9.
       16     1     5     0     0     0 -6.4644465078e+01  2.5929742160e+01 -7.8766647533e+01  1.0514486748e+02  0.0000000000e+00 0. 9.
        1     1     7     0   104     0  1.6233144580e+01 -2.4693040129e+00 -9.9853170211e+00  1.9220507311e+01  3.3000000000e-01 0. 9.
       -2     1     7     0     0   104  2.1958488112e+01 -5.1178303111e+01 -4.0079857169e+02  4.0464922820e+02  3.3000000000e-01 0. 9.
#pdf   21   21  8.510603e-03  1.650838e-01  1.735452e+02  9.147925e+00  3.877383e-01
</event>
<event>
    12  9999  1.000000e+00  1.833874e+02  7.879917e-03  1.068598e-01
       21    -1     0     0   101   102  0.0000000000e+00  0.0000000000e+00  1.2272675077e+02  1.2272675077e+02  0.0000000000e+00 0. 9.
       21    -1     0     0   102   103  0.0000000000e+00  0.0000000000e+00 -2.9307203980e+02  2.9307203980e+02  0.0000000000e+00 0. 9.
        6     2     1     2   101     0 -6.3173614429e+01 -1.0878237943e+01 -3.2525158268e+01  1.8701588354e+02  1.7264939373e+02  1.759194e-13 9.
       -6     2     1     2     0   103  6.3173614429e+01  1.0878237943e+01 -1.3782013077e+02  2.2878290702e+02  1.7099119416e+02  3.320710e-13 9.
       24     2     3     0     0     0  2.2634902531e+01 -3.3813459602e+01  4.8891948348e+00  9.0517179960e+01  8.0707910262e+01  9.035356e-16 9.
        5     1     3     0   101     0 -8.5808516960e+01  2.2935221659e+01 -3.7414353103e+01  9.6498703584e+01  4.8000000000e+00 0. 9.
      -24     2     4     0     0     0  4.1886100185e+01  6.9787479753e+01 -5.6996935810e+01  1.2641647758e+02  7.8152014648e+01  1.542674e-15 9.
       -5     1     4     0     0   103  2.1287514243e+01 -5.8909241810e+01 -8.0823194958e+01  1.0236642944e+02  4.8000000000e+00 0. 9.
      -13     1     5     0     0     0  3.4017733863e+01  3.5930440637e+00 -2.4098859002e+01  4.1843546122e+01  1.0566000000e-01  4.221199e+05 9.
       14     1     5     0     0     0 -1.1382831332e+01 -3.7406503666e+01  2.8988053837e+01  4.8673633837e+01  0.0000000000e+00 0. 9.
        1     1     7     0   104     0  3.5492512964e-01 -1.2519473188e+01 -2.6497725321e+01  2.9310433772e+01  3.3000000000e-01 0. 9.
       -2     1     7     0     0   104  4.1531175056e+01  8.2306952941e+01 -3.0499210489e+01  9.7106043810e+01  3.3000000000e-01 0. 9.
#pdf   21   21  1.888104e-02  4.508801e-02  1.826122e+02  4.855501e+00  2.134429e+00
</event>
<event>
    12  9999  1.000000e+00  1.885336e+02  7.882410e-03  1.064983e-01
       21    -1     0     0   101   102  0.0000000000e+00  0.0000000000e+00  2.5408716884e+02  2.5408716884e+02  0.0000000000e+00 0. 9.
       21    -1     0     0   103   101  0.0000000000e+00  0.0000000000e+00 -1.4651852932e+02  1.4651852932e+02  0.0000000000e+00 0. 9.
        6     2     1     2   103     0 -6.6551397839e+01  3.3676877760e+01  9.5614816885e+01  2.0917791784e+02  1.7044056868e+02  6.834119e-14 9.
       -6     2     1     2     0   102  6.6551397839e+01 -3.3676877760e+01  1.1953822640e+01  1.9142778032e+02  1.7589337836e+02  1.347491e-13 9.
       24     2     3     0     0     0 -1.0162337343e+02  2.8710088795e+01  1.0800625122e+02  1.7134539070e+02  8.0884568266e+01  1.086093e-13 9.
        5     1     3     0   103     0  3.5071975595e+01  4.9667889646e+00 -1.2391434337e+01  3.7832527138e+01  4.8000000000e+00 0. 9.
      -24     2     4     0     0     0  4.7916123109e+01  4.6874812003e+01  2.7804219216e+01  1.0710623349e+02  7.8774791604e+01  2.745050e-14 9.
       -5     1     4     0     0   102  1.8635274730e+01 -8.0551689763e+01 -1.5850396576e+01  8.4321546828e+01  4.8000000000e+00 0. 9.
       -1     1     5     0     0   104 -1.5013407758e+01 -1.4186766875e+01 -6.3533621271e+00  2.1613442049e+01  3.3000000000e-01 0. 9.
        2     1     5     0   104     0 -8.6609965676e+01  4.2896855671e+01  1.1435961335e+02  1.4973194865e+02  3.3000000000e-01 0. 9.
        3     1     7     0   105     0  6.6177069196e+01  4.6983883116e+01  3.3668984205e+01  8.7867742986e+01  5.0000000000e-01 0. 9.
       -4     1     7     0     0   105 -1.8260946087e+01 -1.0907111355e-01 -5.8647649894e+00  1.9238490504e+01  1.5000000000e+00 0. 9.
#pdf   21   21  3.909033e-02  2.254131e-02  1.860463e+02  2.470717e+00  4.159460e+00
</event>
<event>
    12  9999  1.000000e+00  2.322554e+02  7.901244e-03  1.038512e-01
       21    -1     0     0   101   102  0.0000000000e+00  0.0000000000e+00  9.4867703595e+02  9.4867703595e+02  0.0000000000e+00 0. 9.
       21    -1     0     0   102   103  0.0000000000e+00  0.0000000000e+00 -6.2593780757e+01  6.2593780757e+01  0.0000000000e+00 0. 9.
        6     2     1     2   101     0  1.4946050866e+02  1.3167022298e+01  6.0205452604e+02  6.4660291892e+02  1.8197216354e+02  2.551470e-13 9.
       -6     2     1     2     0   103 -1.4946050866e+02 -1.3167022298e+01  2.8402872915e+02  3.6466789778e+02  1.7262254362e+02  1.513431e-14 9.
       24     2     3     0     0     0  1.6140888191e+01  3.9425629301e+01  1.6312071651e+02  1.8709278324e+02  8.1119867284e+01  8.026870e-14 9.
        5     1     3     0   101     0  1.3331962047e+02 -2.6258607003e+01  4.3893380953e+02  4.5951013568e+02  4.8000000000e+00 0. 9.
      -24     2     4     0     0     0 -1.2310015426e+02  5.1449152107e+01  2.2496636324e+02  2.7311724871e+02  7.8628898770e+01  2.045716e-14 9.
       -5     1     4     0     0   103 -2.6360354406e+01 -6.4616174405e+01  5.9062365907e+01  9.1550649073e+01  4.8000000000e+00 0. 9.
      -15     1     5     0     0     0 -1.0878660696e+01 -1.9746318743e+01  6.9539443935e+01  7.3124234797e+01  1.7768200000e+00  6.916403e-02 9.
       16     1     5     0     0     0  2.7019548887e+01  5.9171948044e+01  9.3581272571e+01  1.1396854844e+02  0.0000000000e+00 0. 9.
        3     1     7     0   104     0 -8.9361684452e+00  2.2297853350e+01  9.3644411871e+01  9.6677687422e+01  5.0000000000e-01 0. 9.
       -4     1     7     0     0   104 -1.1416398581e+02  2.9151298756e+01  1.3132195137e+02  1.7643956129e+02  1.5000000000e+00 0. 9.
#pdf   21   21  1.459503e-01  9.629812e-03  2.287146e+02  4.579095e-01  8.367070e+00
</event>
<event>
    12  9999  1.000000e+00  1.722010e+02  7.874255e-03  1.076914e-01
       21    -1     0     0   101   102  0.0000000000e+00  0.0000000000e+00  4.3147000617e+02  4.3147000617e+02  0.0000000000e+00 0. 9.
       21    -1     0     0   103   101  0.0000000000e+00  0.0000000000e+00 -1.1122289010e+02  1.1122289010e+02  0.0000000000e+00 0. 9.
        6     2     1     2   103     0  1.3673290520e+01 -1.9006558884e+01 -7.0305888743e+00  1.7333474490e+02  1.7160214583e+02  9.094390e-13 9.
       -6     2     1     2     0   102 -1.3673290520e+01  1.9006558884e+01  3.2727770495e+02  3.6935815137e+02  1.6960701540e+02  1.033708e-13 9.
       24     2     3     0     0     0  5.2916850748e+01 -4.4857917304e+01  3.2721069440e+01  1.1159671699e+02  8.1060058098e+01  1.100832e-13 9.
        5     1     3     0   103     0 -3.9243560228e+01  2.5851358420e+01 -3.9751658315e+01  6.1738027911e+01  4.8000000000e+00 0. 9.
      -24     2     4     0     0     0  2.9347571190e+01  2.2014892530e+01  1.0813167533e+02  1.4595746446e+02  9.0913072733e+01  7.963357e-14 9.
       -5     1     4     0     0   102 -4.3020861711e+01 -3.0083336461e+00  2.1914602962e+02  2.2340068691e+02  4.8000000000e+00 0. 9.
       -3     1     5     0     0   104  3.1400343343e+01 -1.5863111589e+01 -2.5234824567e+01  4.3297416115e+01  5.0000000000e-01 0. 9.
        4     1     5     0   104     0  2.1516507406e+01 -2.8994805715e+01  5.7955894007e+01  6.8299300872e+01  1.5000000000e+00 0. 9.
       13     1     7     0     0     0 -1.3375961853e+01  3.8750986378e+01  8.5445871580e+01  9.4771110761e+01  1.0566000000e-01  9.216351e+04 9.
      -14     1     7     0     0     0  4.2723533044e+01 -1.6736093848e+01  2.2685803748e+01  5.1186353696e+01  0.0000000000e+00 0. 9.
#pdf   21   21  6.638000e-02  1.711121e-02  1.712155e+02  1.394441e+00  5.279634e+00
</event>
<event>
    12  9999  1.000000e+00  1.867496e+02  7.881553e-03  1.066222e-01
       21    -1     0     0   101   102  0.0000000000e+00  0.0000000000e+00  2.8610310274e+02  2.8610310274e+02  0.0000000000e+00 0. 9.
       21    -1     0     0   103   101  0.0000000000e+00  0.0000000000e+00 -1.2602639307e+02  1.2602639307e+02  0.0000000000e+00 0. 9.
        6     2     1     2   103     0  7.4586645580e+01 -1.0103326542e+01  4.2776907224e+01  1.9166700213e+02  1.7100038306e+02  2.247779e-15 9.
       -6     2     1     2     0   102 -7.4586645580e+01  1.0103326542e+01  1.1729980245e+02  2.2046249368e+02  1.7081926870e+02  9.297898e-14 9.
       24     2     3     0     0     0  1.5730244740e+01 -3.1022557365e+01  7.9821864219e+01  1.1888610507e+02  8.0947738115e+01  4.429808e-14 9.
        5     1     3     0   103     0  5.8856400840e+01  2.0919230822e+01 -3.7044956995e+01  7.2780897059e+01  4.8000000000e+00 0. 9.
      -24     2     4     0     0     0 -1.0472607463e+02  4.3411492581e+01  1.0542968073e+02  1.7375319163e+02  7.8883747557e+01  2.506639e-13 9.
       -5     1     4     0     0   102  3.0139429047e+01 -3.3308166038e+01  1.1870121721e+01  4.6709302048e+01  4.8000000000e+00 0. 9.
       -3     1     5     0     0   104  4.1736954402e+01 -1.1899082081e+01  1.4077443793e+01  4.5628784127e+01  5.0000000000e-01 0. 9.
        4     1     5     0   104     0 -2.6006709662e+01 -1.9123475283e+01  6.5744420426e+01  7.3257320942e+01  1.5000000000e+00 0. 9.
        3     1     7     0   105     0  8.0156661255e+00  1.5381105081e+01  3.1733701306e+01  3.6167763208e+01  5.0000000000e-01 0. 9.
       -4     1     7     0     0   105 -1.1274174075e+02  2.8030387500e+01  7.3695979427e+01  1.3758542843e+02  1.5000000000e+00 0. 9.
#pdf   21   21  4.401586e-02  1.938868e-02  1.866667e+02  2.186358e+00  4.744761e+00
</event>
<event>
    12  9999  1.000000e+00  2.008811e+02  7.888129e-03  1.056788e-01
       21    -1     0     0   101   102  0.0000000000e+00  0.0000000000e+00  2.0460463058e+02  2.0460463058e+02  0.0000000000e+00 0. 9.
       21    -1     0     0   102   103  0.0000000000e+00  0.0000000000e+00 -1.1895412289e+03  1.1895412289e+03  0.0000000000e+00 0. 9.
        6     2     1     2   101     0 -1.0157718536e+02  2.9726175728e+01  1.4404202755e+02  2.4750285304e+02  1.7119575477e+02  7.836400e-14 9.
       -6     2     1     2     0   103  1.0157718536e+02 -2.9726175728e+01 -1.1289786259e+03  1.1466430065e+03  1.7028175606e+02  6.247918e-14 9.
       24     2     3     0     0     0  4.8736000189e+00  3.3374800475e+01  3.2123595986e+01  9.2926472264e+01  8.0410040072e+01  2.331178e-15 9.
        5     1     3     0   101     0 -1.0645078538e+02 -3.6486247467e+00  1.1191843156e+02  1.5457638077e+02  4.8000000000e+00 0. 9.
      -24     2     4     0     0     0  4.0617729825e+01  1.6722079501e+01 -2.8858088971e+02  3.0274438067e+02  8.0285753438e+01  6.519006e-15 9.
       -5     1     4     0     0   103  6.0959455531e+01 -4.6448255229e+01 -8.4039773621e+02  8.4389862582e+02  4.8000000000e+00 0. 9.
       -1     1     5     0     0   104  5.9999018547e+00  5.3353042536e+01  4.4207747094e+01  6.9548398783e+01  3.3000000000e-01 0. 9.
        2     1     5     0   104     0 -1.1263018358e+00 -1.9978242061e+01 -1.2084151108e+01  2.3378073481e+01  3.3000000000e-01 0. 9.
        3     1     7     0   105     0  6.1826178694e+00 -3.1235315116e+01 -8.4981138195e+01  9.0751933991e+01  5.0000000000e-01 0. 9.
       -4     1     7     0     0   105  3.4435111956e+01  4.7957394618e+01 -2.0359975151e+02  2.1199244668e+02  1.5000000000e+00 0. 9.
#pdf   21   21  3.147764e-02  1.830063e-01  2.004930e+02  3.048748e+00  3.157339e-01
</event>
<event>
    12  9999  1.000000e+00  3.223327e+02  7.931025e-03  9.995058e-02
        2    -1     0     0   101     0  0.0000000000e+00  0.0000000000e+00  1.0640186628e+03  1.0640186628e+03  0.0000000000e+00 0. 9.
       -2    -1     0     0     0   102  0.0000000000e+00  0.0000000000e+00 -9.8639904739e+01  9.8639904739e+01  0.0000000000e+00 0. 9.
        6     2     1     2   101     0  1.9474455965e+02 -1.9189131567e+02  5.4182369167e+02  6.3073757438e+02  1.7178257870e+02  5.025502e-14 9.
       -6     2     1     2     0   102 -1.9474455965e+02  1.9189131567e+02  4.2355506643e+02  5.3192099319e+02  1.6968596923e+02  6.359847e-14 9.
       24     2     3     0     0     0  7.0875635328e+01 -2.4244882703e+01  2.3972404790e+02  2.6367344965e+02  8.0280127622e+01  1.802818e-13 9.
        5     1     3     0   101     0  1.2386892432e+02 -1.6764643297e+02  3.0209964377e+02  3.6706412473e+02  4.8000000000e+00 0. 9.
      -24     2     4     0     0     0 -1.4977124497e+02  1.7145038701e+02  2.3437391295e+02  3.3633730412e+02  7.9780887728e+01  9.315222e-14 9.
       -5     1     4     0     0   102 -4.4973314683e+01  2.0440928663e+01  1.8918115348e+02  1.9558368907e+02  4.8000000000e+00 0. 9.
      -15     1     5     0     0     0 -1.3917295665e+01 -1.5551888316e+01  7.9197033569e+01  8.1919958278e+01  1.7768200000e+00  2.379398e-03 9.
       16     1     5     0     0     0  8.4792930993e+01 -8.6929943878e+00  1.6052701433e+02  1.8175349138e+02  0.0000000000e+00 0. 9.
        1     1     7     0   103     0 -9.1178766849e+01  7.1889749571e+01  1.6442001790e+02  2.0128525729e+02  3.3000000000e-01 0. 9.
       -2     1     7     0     0   103 -5.8592478117e+01  9.9560637437e+01  6.9953895045e+01  1.3505204682e+02  3.3000000000e-01 0. 9.
#pdf    2   -2  1.636952e-01  1.517537e-02  3.217779e+02  4.874054e-01  4.107116e-01
</event>
<event>
    12  9999  1.000000e+00  2.366141e+02  7.902928e-03  1.036217e-01
       21    -1     0     0   101   102  0.0000000000e+00  0.0000000000e+00  7.5957351538e+02  7.5957351538e+02  0.0000000000e+00 0. 9.
       21    -1     0     0   103   101  0.0000000000e+00  0.0000000000e+00 -7.5464950379e+01  7.5464950379e+01  0.0000000000e+00 0. 9.
        6     2     1     2   103     0 -1.4944361390e+02  6.8883918182e+01  2.7937086005e+02  3.6657509776e+02  1.7102876053e+02  2.695183e-14 9.
       -6     2     1     2     0   102  1.4944361390e+02 -6.8883918182e+01  4.0473770495e+02  4.6846336801e+02  1.6901754180e+02  1.326537e-13 9.
       24     2     3     0     0     0 -2.9036404204e+01  3.6102237893e+01  5.4492476219e+01  1.0934783982e+02  8.2710554098e+01  1.409901e-13 9.
        5     1     3     0   103     0 -1.2040720969e+02  3.2781680290e+01  2.2487838383e+02  2.5722725793e+02  4.8000000000e+00 0. 9.
      -24     2     4     0     0     0  5.6802466467e+01 -9.3867786554e+01  1.9430695267e+02  2.3713953140e+02  8.0263839606e+01  1.823353e-14 9.
       -5     1     4     0     0   102  9.2641147431e+01  2.4983868372e+01  2.1043075228e+02  2.3132383660e+02  4.8000000000e+00 0. 9.
       -1     1     5     0     0   104 -7.0353648913e-01 -2.4632301927e+01  2.9898264259e+00  2.4825253752e+01  3.3000000000e-01 0. 9.
        2     1     5     0   104     0 -2.8332867715e+01  6.0734539820e+01  5.1502649793e+01  8.4522586069e+01  3.3000000000e-01 0. 9.
       13     1     7     0     0     0 -4.9735551149e+00 -1.1919705194e+00 -6.0397679243e+00  7.9149860906e+00  1.0566000000e-01  6.794641e+05 9.
      -14     1     7     0     0     0  6.1776021582e+01 -9.2675816034e+01  2.0034672059e+02  2.2922454531e+02  0.0000000000e+00 0. 9.
#pdf   21   21  1.168575e-01  1.160999e-02  2.358926e+02  6.434333e-01  7.231214e+00
</event>
<event>
    12  9999  1.000000e+00  2.205602e+02  7.896570e-03  1.044945e-01
       21    -1     0     0   101   102  0.0000000000e+00  0.0000000000e+00  3.0470575056e+02  3.0470575056e+02  0.0000000000e+00 0. 9.
       21    -1     0     0   102   103  0.0000000000e+00  0.0000000000e+00 -1.0339053232e+03  1.0339053232e+03  0.0000000000e+00 0. 9.
        6     2     1     2   101     0 -6.6039504535e+01  1.2099082997e+02  2.5111499838e+02  3.3357268554e+02  1.7091517495e+02  1.850353e-13 9.
       -6     2     1     2     0   103  6.6039504535e+01 -1.2099082997e+02 -9.8031457102e+02  1.0050383882e+03  1.7345174130e+02  4.179532e-13 9.
       24     2     3     0     0     0 -5.2828079767e+01  8.5384376014e+01  6.5013832012e+01  1.4357519757e+02  7.9408698053e+01  7.914269e-14 9.
        5     1     3     0   101     0 -1.3211424768e+01  3.5606453958e+01  1.8610116637e+02  1.8999748796e+02  4.8000000000e+00 0. 9.
      -24     2     4     0     0     0  3.6684397579e+01 -8.5312143936e+01 -9.2342162788e+02  9.3159087009e+02  8.0809278340e+01  6.313668e-14 9.
       -5     1     4     0     0   103  2.9355106955e+01 -3.5678686036e+01 -5.6892943139e+01  7.3447518138e+01  4.8000000000e+00 0. 9.
       -3     1     5     0     0   104 -6.5151137399e+01  7.0249107735e+01  7.4929700260e+01  1.2163189476e+02  5.0000000000e-01 0. 9.
        4     1     5     0   104     0  1.2323057632e+01  1.5135268279e+01 -9.9158682473e+00  2.1943302814e+01  1.5000000000e+00 0. 9.
        1     1     7     0   105     0 -1.1746690380e+00 -5.3063513249e+01 -7.2827673159e+02  7.3020834216e+02  3.3000000000e-01 0. 9.
       -2     1     7     0     0   105  3.7859066617e+01 -3.2248630687e+01 -1.9514489629e+02  2.0138252793e+02  3.3000000000e-01 0. 9.
#pdf   21   21  4.687781e-02  1.590624e-01  2.195723e+02  2.025888e+00  3.990803e-01
</event>
<event>
    12  9999  1.000000e+00  1.920205e+02  7.884061e-03  1.062602e-01
       21    -1     0     0   101   102  0.0000000000e+00  0.0000000000e+00  3.1975873436e+02  3.1975873436e+02  0.0000000000e+00 0. 9.
       21    -1     0     0   103   101  0.0000000000e+00  0.0000000000e+00 -1.4296123894e+02  1.4296123894e+02  0.0000000000e+00 0. 9.
        6     2     1     2   103     0 -3.6777246453e+01  7.6362936626e+01 -1.3348104384e+01  1.9248578787e+02  1.7230421555e+02  1.415963e-13 9.
       -6     2     1     2     0   102  3.6777246453e+01 -7.6362936626e+01  1.9014559981e+02  2.7023418543e+02  1.7230003454e+02  6.861855e-14 9.
       24     2     3     0     0     0 -8.4267113297e+01  7.7341840251e+01 -2.8683012489e+01  1.4234154482e+02  7.9722603687e+01  5.871845e-14 9.
        5     1     3     0   103     0  4.7489866844e+01 -9.7890362487e-01  1.5334908105e+01  5.0144243057e+01  4.8000000000e+00 0. 9.
      -24     2     4     0     0     0  4.4694988269e+01 -7.2868100981e+01  2.1324749954e+02  2.4510169087e+02  8.5398715967e+01  1.006563e-14 9.
       -5     1     4     0     0   102 -7.9177418166e+00 -3.4948356446e+00 -2.3101899732e+01  2.5132494561e+01  4.8000000000e+00 0. 9.
       -3     1     5     0     0   104  6.7488079835e+00 -9.8318875297e+00 -8.6068251780e+00  1.4715293447e+01  5.0000000000e-01 0. 9.
        4     1     5     0   104     0 -9.1015921280e+01  8.7173727781e+01 -2.0076187311e+01  1.2762625137e+02  1.5000000000e+00 0. 9.
        1     1     7     0   105     0  2.8914091440e+01  9.6181556543e+00  9.7117395869e+01  1.0178620281e+02  3.3000000000e-01 0. 9.
       -2     1     7     0     0   105  1.5780896829e+01 -8.2486256636e+01  1.1613010367e+02  1.4331548806e+02  3.3000000000e-01 0. 9.
#pdf   21   21  4.919365e-02  2.199404e-02  1.920187e+02  1.939508e+00  4.248175e+00
</event>
<event>
    12  9999  1.000000e+00  2.066455e+02  7.890682e-03  1.053174e-01
       21    -1     0     0   101   102  0.0000000000e+00  0.0000000000e+00  6.2464435764e+01  6.2464435764e+01  0.0000000000e+00 0. 9.
       21    -1     0     0   103   101  0.0000000000e+00  0.0000000000e+00 -8.0757679072e+02  8.0757679072e+02  0.0000000000e+00 0. 9.
        6     2     1     2   103     0  2.2590858902e+00  1.1594079634e+02 -5.4260743049e+02  5.8053728205e+02  1.7074349329e+02  3.595473e-14 9.
       -6     2     1     2     0   102 -2.2590858902e+00 -1.1594079634e+02 -2.0250492448e+02  2.8950394444e+02  1.7133860536e+02  4.485301e-13 9.
       24     2     3     0     0     0 -4.7788120893e+00  1.8799977927e+01 -3.9562002004e+02  4.0414507859e+02  8.0260625950e+01  2.957192e-14 9.
        5     1     3     0   103     0  7.0378979795e+00  9.7140818413e+01 -1.4698741045e+02  1.7639220345e+02  4.8000000000e+00 0. 9.
      -24     2     4     0     0     0  3.0946283141e+01 -1.3188020676e+02 -1.9685459822e+02  2.5193231254e+02  7.9800350186e+01  2.607993e-14 9.
       -5     1     4     0     0   102 -3.3205369031e+01  1.5939410416e+01 -5.6503262593e+00  3.7571631901e+01  4.8000000000e+00 0. 9.
       -1     1     5     0     0   104 -3.1017028182e+01  2.7924079083e+01 -1.1848194755e+02  1.2561803623e+02  3.3000000000e-01 0. 9.
        2     1     5     0   104     0  2.6238216093e+01 -9.1241011558e+00 -2.7713807248e+02  2.7852704236e+02  3.3000000000e-01 0. 9.
       15     1     7     0     0     0  1.4540838263e+01 -6.2712861687e+01 -3.0975536720e+01  7.1463137090e+01  1.7768200000e+00  7.011099e-02 9.
      -16     1     7     0     0     0  1.6405444877e+01 -6.9167345069e+01 -1.6587906150e+02  1.8046917545e+02  0.0000000000e+00 0. 9.
#pdf   21   21  9.609913e-03  1.242426e-01  2.063994e+02  8.372296e+00  5.969004e-01
</event>
<event>
    12  9999  1.000000e+00  3.001887e+02  7.924539e-03  1.007722e-01
       21    -1     0     0   101   102  0.0000000000e+00  0.0000000000e+00  4.1137649098e+02  4.1137649098e+02  0.0000000000e+00 0. 9.
       21    -1     0     0   103   101  0.0000000000e+00  0.0000000000e+00 -2.9408481349e+02  2.9408481349e+02  0.0000000000e+00 0. 9.
        6     2     1     2   103     0 -1.4403455203e+02 -1.9981533775e+02 -1.1954989142e+02  3.2294040006e+02  1.7124895350e+02  1.654995e-13 9.
       -6     2     1     2     0   102  1.4403455203e+02  1.9981533775e+02  2.3684156891e+02  3.8252090441e+02  1.7191914427e+02  2.330425e-13 9.
       24     2     3     0     0     0 -8.3055796201e+01 -6.2772970866e+01  1.3889730592e+01  1.2212159689e+02  6.2306088443e+01  8.986585e-15 9.
        5     1     3     0   103     0 -6.0978755824e+01 -1.3704236689e+02 -1.3343962202e+02  2.0081880317e+02  4.8000000000e+00 0. 9.
      -24     2     4     0     0     0  1.7228561984e+01  9.8142472560e+01  1.5345121799e+02  1.9978031983e+02  8.0225504794e+01  2.363907e-13 9.
       -5     1     4     0     0   102  1.2680599004e+02  1.0167286519e+02  8.3390350925e+01  1.8274058458e+02  4.8000000000e+00 0. 9.
       -3     1     5     0     0   104 -9.1209967929e+01 -6.5097847257e+01  9.5124970768e+00  1.1246210725e+02  5.0000000000e-01 0. 9.
        4     1     5     0   104     0  8.1541717274e+00  2.3248763917e+00  4.3772335155e+00  9.6594896369e+00  1.5000000000e+00 0. 9.
        3     1     7     0   105     0 -2.2763938034e+01  1.0785377041e+01  9.9685204355e+00  2.7095066569e+01  5.0000000000e-01 0. 9.
       -4     1     7     0     0   105  3.9992500018e+01  8.7357095519e+01  1.4348269755e+02  1.7268525326e+02  1.5000000000e+00 0. 9.
#pdf   21   21  6.328869e-02  4.524382e-02  2.999972e+02  1.412768e+00  2.065383e+00
</event>
<event>
    12  9999  1.000000e+00  1.924346e+02  7.884255e-03  1.062323e-01
       21    -1     0     0   101   102  0.0000000000e+00  0.0000000000e+00  4.4613911684e+02  4.4613911684e+02  0.0000000000e+00 0. 9.
       21    -1     0     0   103   101  0.0000000000e+00  0.0000000000e+00 -2.5285971854e+02  2.5285971854e+02  0.0000000000e+00 0. 9.
        6     2     1     2   103     0 -8.1442091301e+01  3.4072793509e+01 -1.8975317631e+02  2.7049581757e+02  1.7137079655e+02  1.950698e-13 9.
       -6     2     1     2     0   102  8.1442091301e+01 -3.4072793509e+01  3.8303257460e+02  4.2850301781e+02  1.7060807008e+02  4.699460e-14 9.
       24     2     3     0     0     0 -7.4434658062e+01 -1.1037945796e+01 -4.7100463475e+01  1.2063948838e+02  8.1688909455e+01  4.820291e-15 9.
        5     1     3     0   103     0 -7.0074332398e+00  4.5110739305e+01 -1.4265271283e+02  1.4985632919e+02  4.8000000000e+00 0. 9.
      -24     2     4     0     0     0  1.6756287881e+01 -7.6899596178e+01  2.0875980816e+02  2.3768261714e+02  8.1963698732e+01  2.412743e-14 9.
       -5     1     4     0     0   102  6.4685803420e+01  4.2826802669e+01  1.7427276644e+02  1.9082040067e+02  4.8000000000e+00 0. 9.
       -3     1     5     0     0   104 -2.7558015821e+01 -2.1508488558e+01 -6.1266318450e+01  7.0539854638e+01  5.0000000000e-01 0. 9.
        4     1     5     0   104     0 -4.6876642241e+01  1.0470542762e+01  1.4165854974e+01  5.0099633738e+01  1.5000000000e+00 0. 9.
        3     1     7     0   105     0  4.9590117621e+01 -4.0003310653e+01  1.2854981026e+02  1.4347385945e+02  5.0000000000e-01 0. 9.
       -4     1     7     0     0   105 -3.2833829739e+01 -3.6896285525e+01  8.0209997906e+01  9.4208757687e+01  1.5000000000e+00 0. 9.
#pdf   21   21  6.863679e-02  3.890150e-02  1.920960e+02  1.328391e+00  2.479007e+00
</event>
<event>
    12  9999  1.000000e+00  1.856284e+02  7.881011e-03  1.067008e-01
       21    -1     0     0   101   102  0.0000000000e+00  0.0000000000e+00  7.3206264576e+02  7.3206264576e+02  0.0000000000e+00 0. 9.
       21    -1     0     0   103   101  0.0000000000e+00  0.0000000000e+00 -5.0912638653e+01  5.0912638653e+01  0.0000000000e+00 0. 9.
        6     2     1     2   103     0  4.3725326217e+01 -5.7153968823e+01  2.3333343809e+02  2.9828092764e+02  1.7131415049e+02  3.026806e-15 9.
       -6     2     1     2     0   102 -4.3725326217e+01  5.7153968823e+01  4.4781656902e+02  4.8469435677e+02  1.7091067754e+02  1.107627e-14 9.
       24     2     3     0     0     0 -2.0794946870e+01 -8.0808834159e+01  1.4285749644e+02  1.8456481484e+02  8.1813257447e+01  1.541268e-14 9.
        5     1     3     0   103     0  6.4520273087e+01  2.3654865336e+01  9.0475941650e+01  1.1371611280e+02  4.8000000000e+00 0. 9.
      -24     2     4     0     0     0 -5.8355493639e+01  7.4726031981e+01  2.0695138377e+02  2.4269870255e+02  8.4169124255e+01  1.198845e-13 9.
       -5     1     4     0     0   102  1.4630167422e+01 -1.7572063158e+01  2.4086518525e+02  2.4199565423e+02  4.8000000000e+00 0. 9.
      -15     1     5     0     0     0  3.0611098571e+01 -2.6923261798e+01  3.6643967588e+01  5.4843767481e+01  1.7768200000e+00  3.233220e-02 9.
       16     1     5     0     0     0 -5.1406045441e+01 -5.3885572361e+01  1.0621352885e+02  1.2972104736e+02  0.0000000000e+00 0. 9.
        3     1     7     0   104     0 -6.6302143633e+01  3.6676024810e+01  1.8021591766e+02  1.9549714070e+02  5.0000000000e-01 0. 9.
       -4     1     7     0     0   104  7.9466499947e+00  3.8050007171e+01  2.6735466117e+01  4.7201561842e+01  1.5000000000e+00 0. 9.
#pdf   21   21  1.126250e-01  7.832714e-03  1.854426e+02  6.980124e-01  9.743065e+00
</event>
<event>
    12  9999  1.000000e+00  1.889767e+02  7.882621e-03  1.064677e-01
       21    -1     0     0   101   102  0.0000000000e+00  0.0000000000e+00  3.9335618888e+02  3.9335618888e+02  0.0000000000e+00 0. 9.
       21    -1     0     0   103   101  0.0000000000e+00  0.0000000000e+00 -3.5305271547e+02  3.5305271547e+02  0.0000000000e+00 0. 9.
        6     2     1     2   103     0  7.3634971594e+01  3.1417124961e+01 -3.0150005038e+02  3.5597795444e+02  1.7149017139e+02  1.055817e-13 9.
       -6     2     1     2     0   102 -7.3634971594e+01 -3.1417124961e+01  3.4180352379e+02  3.9043094992e+02  1.7087285623e+02  2.571595e-13 9.
       24     2     3     0     0     0  5.1179519293e+00 -3.1055714092e+01 -2.0444108531e+02  2.2166146139e+02  7.9668031825e+01  2.796602e-13 9.
        5     1     3     0   103     0  6.8517019665e+01  6.2472839053e+01 -9.7058965070e+01  1.3431649304e+02  4.8000000000e+00 0. 9.
      -24     2     4     0     0     0 -4.8241979528e+01 -3.2471303880e+01  3.4882234153e+02  3.6363133906e+02  8.4670246436e+01  1.542173e-15 9.
       -5     1     4     0     0   102 -2.5392992066e+01  1.0541789191e+00 -7.0188177474e+00  2.6799610852e+01  4.8000000000e+00 0. 9.
      -15     1     5     0     0     0  6.3387892265e-01  1.7174101016e+01 -1.3991594607e+02  1.4097865300e+02  1.7768200000e+00  8.459475e-03 9.
       16     1     5     0     0     0  4.4840730066e+00 -4.8229815108e+01 -6.4525139237e+01  8.0682808390e+01  0.0000000000e+00 0. 9.
        3     1     7     0   104     0  6.9893513866e-01 -5.0189107723e+01  1.8822664391e+02  1.9480491401e+02  5.0000000000e-01 0. 9.
       -4     1     7     0     0   104 -4.8940914667e+01  1.7717803843e+01  1.6059569763e+02  1.6882642506e+02  1.5000000000e+00 0. 9.
#pdf   21   21  6.051634e-02  5.431580e-02  1.886973e+02  1.541849e+00  1.742079e+00
</event>
<event>
    12  9999  1.000000e+00  2.662933e+02  7.913644e-03  1.021867e-01
       21    -1     0     0   101   102  0.0000000000e+00  0.0000000000e+00  1.6611954341e+02  1.6611954341e+02  0.0000000000e+00 0. 9.
       21    -1     0     0   102   103  0.0000000000e+00  0.0000000000e+00 -6.1883334310e+02  6.1883334310e+02  0.0000000000e+00 0. 9.
        6     2     1     2   101     0 -1.9908422284e+02  5.9763839114e+01 -6.2786435286e+00  2.6379212821e+02  1.6229793989e+02  3.265559e-13 9.
       -6     2     1     2     0   103  1.9908422284e+02 -5.9763839114e+01 -4.4643515617e+02  5.2116075829e+02  1.7058119202e+02  6.126226e-13 9.
       24     2     3     0     0     0 -6.5561173491e+01 -1.8136224752e+01  1.5835716481e+01  1.0755861844e+02  8.1797899520e+01  2.435087e-14 9.
        5     1     3     0   101     0 -1.3352304935e+02  7.7900063866e+01 -2.2114360009e+01  1.5623350978e+02  4.8000000000e+00 0. 9.
      -24     2     4     0     0     0  7.2282742209e+01 -4.4311455952e+01 -3.2664890557e+02  3.4597749006e+02  7.6240515258e+01  1.416172e-13 9.
       -5     1     4     0     0   103  1.2680148064e+02 -1.5452383162e+01 -1.1978625059e+02  1.7518326823e+02  4.8000000000e+00 0. 9.
       -1     1     5     0     0   104  1.6347047745e+01  4.3412593847e+00  1.5012439602e+01  2.2617576038e+01  3.3000000000e-01 0. 9.
        2     1     5     0   104     0 -8.1908221235e+01 -2.2477484136e+01  8.2327687837e-01  8.4941042399e+01  3.3000000000e-01 0. 9.
        1     1     7     0   105     0 -3.3166684982e+00 -3.0810370049e+01 -1.5296826755e+02  1.5607587568e+02  3.3000000000e-01 0. 9.
       -2     1     7     0     0   105  7.5599410707e+01 -1.3501085903e+01 -1.7368063803e+02  1.8990161438e+02  3.3000000000e-01 0. 9.
#pdf   21   21  2.555685e-02  9.520513e-02  2.637174e+02  3.674414e+00  8.498434e-01
</event>
<event>
    12  9999  1.000000e+00  2.485654e+02  7.907393e-03  1.030184e-01
       21    -1     0     0   101   102  0.0000000000e+00  0.0000000000e+00  9.1818107637e+02  9.1818107637e+02  0.0000000000e+00 0. 9.
       21    -1     0     0   102   103  0.0000000000e+00  0.0000000000e+00 -9.3316588237e+01  9.3316588237e+01  0.0000000000e+00 0. 9.
        6     2     1     2   101     0 -9.9655319721e+01 -1.5044883681e+02  6.7980419182e+02  7.2390267912e+02  1.7127555103e+02  2.183124e-13 9.
       -6     2     1     2     0   103  9.9655319721e+01  1.5044883681e+02  1.4506029632e+02  2.8759498549e+02  1.7059411146e+02  6.620996e-14 9.
       24     2     3     0     0     0 -7.3518550933e+01 -9.9536873304e+01  6.3267905090e+02  6.4961285736e+02  8.0009477712e+01  1.927548e-13 9.
        5     1     3     0   101     0 -2.6136768788e+01 -5.0911963505e+01  4.7125140918e+01  7.4289821760e+01  4.8000000000e+00 0. 9.
      -24     2     4     0     0     0  6.7216872464e+01  1.6537210365e+02  1.5601201429e+02  2.4993948284e+02  7.9145156944e+01  1.251508e-13 9.
       -5     1     4     0     0   103  3.2438447257e+01 -1.4923266839e+01 -1.0951717973e+01  3.7655502655e+01  4.8000000000e+00 0. 9.
      -15     1     5     0     0     0 -6.7737882540e+01 -8.0223173644e+01  3.3094119271e+02  3.4720225869e+02  1.7768200000e+00  2.184435e-02 9.
       16     1     5     0     0     0 -5.7806683931e+00 -1.9313699660e+01  3.0173785819e+02  3.0241059867e+02  0.0000000000e+00 0. 9.
       13     1     7     0     0     0  7.0873416313e+01  1.4831843920e+02  1.0265125165e+02  1.9380064802e+02  1.0566000000e-01  1.299581e+06 9.
      -14     1     7     0     0     0 -3.6565438492e+00  1.7053664453e+01  5.3360762643e+01  5.6138834811e+01  0.0000000000e+00 0. 9.
#pdf   21   21  1.412586e-01  1.435640e-02  2.483312e+02  4.774890e-01  6.089074e+00
</event>
<event>
    12  9999  1.000000e+00  2.168008e+02  7.895016e-03  1.047103e-01
       21    -1     0     0   101   102  0.0000000000e+00  0.0000000000e+00  3.0682646738e+02  3.0682646738e+02  0.0000000000e+00 0. 9.
       21    -1     0     0   102   103  0.0000000000e+00  0.0000000000e+00 -1.6536640060e+02  1.6536640060e+02  0.0000000000e+00 0. 9.
        6     2     1     2   101     0 -1.3007951638e+02  3.2603975852e+01  1.3493116009e+02  2.5574342707e+02  1.7092273898e+02  1.106115e-13 9.
       -6     2     1     2     0   103  1.3007951638e+02 -3.2603975852e+01  6.5289066879e+00  2.1644944091e+02  1.6977642364e+02  2.005956e-14 9.
       24     2     3     0     0     0 -1.4180126712e+02 -1.6231653061e+01  8.1807621994e+01  1.8248041872e+02  7.8965500585e+01  6.618965e-14 9.
        5     1     3     0   101     0  1.1721750738e+01  4.8835628914e+01  5.3123538095e+01  7.3263008343e+01  4.8000000000e+00 0. 9.
      -24     2     4     0     0     0  9.6647602396e+01 -2.7116492896e+01  6.6818368113e+01  1.4712654065e+02  8.4293899006e+01  4.045096e-14 9.
       -5     1     4     0     0   103  3.3431913987e+01 -5.4874829567e+00 -6.0289461425e+01  6.9322900264e+01  4.8000000000e+00 0. 9.
      -13     1     5     0     0     0 -4.1113604728e+01  9.6497188011e+00 -1.0429816221e+01  4.3499859736e+01  1.0566000000e-01  4.964582e+05 9.
       14     1     5     0     0     0 -1.0068766239e+02 -2.5881371862e+01  9.2237438214e+01  1.3898055899e+02  0.0000000000e+00 0. 9.
        3     1     7     0   104     0  7.8084771570e+00 -3.9097513132e+01  3.1303504368e+01  5.0692674366e+01  5.0000000000e-01 0. 9.
       -4     1     7     0     0   104  8.8839125239e+01  1.1981020236e+01  3.5514863745e+01  9.6433866282e+01  1.5000000000e+00 0. 9.
#pdf   21   21  4.720407e-02  2.544098e-02  2.163510e+02  2.012711e+00  3.713676e+00
</event>
<event>
    12  9999  1.000000e+00  2.312983e+02  7.900871e-03  1.039023e-01
       21    -1     0     0   101   102  0.0000000000e+00  0.0000000000e+00  8.4471836447e+01  8.4471836447e+01  0.0000000000e+00 0. 9.
       21    -1     0     0   103   101  0.0000000000e+00  0.0000000000e+00 -1.1062086337e+03  1.1062086337e+03  0.0000000000e+00 0. 9.
        6     2     1     2   103     0 -5.5332940288e+01  1.4483953908e+02 -9.0014418710e+02  9.2939275862e+02  1.7167153475e+02  3.210984e-13 9.
       -6     2     1     2     0   102  5.5332940288e+01 -1.4483953908e+02 -1.2159261013e+02  2.6128771150e+02  1.7159918119e+02  4.106475e-14 9.
       24     2     3     0     0     0 -3.7612671975e+01  1.4777218438e+02 -8.9303946002e+02  9.0948985772e+02  8.0006203323e+01  1.335875e-13 9.
        5     1     3     0   103     0 -1.7720268312e+01 -2.9326453019e+00 -7.1047270853e+00  1.9902900906e+01  4.8000000000e+00 0. 9.
      -24     2     4     0     0     0 -6.8845997547e+00 -1.2967885842e+01 -2.3042820584e+01  8.5230174785e+01  8.0731947433e+01  3.289369e-15 9.
       -5     1     4     0     0   102  6.2217540043e+01 -1.3187165324e+02 -9.8549789542e+01  1.7605753672e+02  4.8000000000e+00 0. 9.
      -11     1     5     0     0     0 -1.2628736311e+01  7.9072627621e+01 -2.5501488036e+02  2.6729114207e+02  5.1100000000e-04 0. 9.
       12     1     5     0     0     0 -2.4983935664e+01  6.8699556758e+01 -6.3802457965e+02  6.4219871565e+02  0.0000000000e+00 0. 9.
        3     1     7     0   104     0  1.8422493280e+00  7.6250180884e+00  2.8212748842e+01  2.9287266527e+01  5.0000000000e-01 0. 9.
       -4     1     7     0     0   104 -8.7268490827e+00 -2.0592903930e+01 -5.1255569426e+01  5.5942908258e+01  1.5000000000e+00 0. 9.
#pdf   21   21  1.299567e-02  1.701859e-01  2.312715e+02  6.607541e+00  3.520401e-01
</event>
<event>
    12  9999  1.000000e+00  2.351862e+02  7.902380e-03  1.036963e-01
       21    -1     0     0   101   102  0.0000000000e+00  0.0000000000e+00  2.3888507914e+02  2.3888507914e+02  0.0000000000e+00 0. 9.
       21    -1     0     0   102   103  0.0000000000e+00  0.0000000000e+00 -3.2280569521e+02  3.2280569521e+02  0.0000000000e+00 0. 9.
        6     2     1     2   101     0 -1.4059391455e+02 -8.4314086501e+01  1.0717315251e+02  2.5977343049e+02  1.7064769726e+02  2.457104e-14 9.
       -6     2     1     2     0   103  1.4059391455e+02  8.4314086501e+01 -1.9109376858e+02  3.0191734386e+02  1.6661854680e+02  2.615948e-14 9.
       24     2     3     0     0     0 -7.2470849348e+01 -1.1669251854e+02  5.4961164882e+01  1.6791350166e+02  7.9404322972e+01  1.680986e-14 9.
        5     1     3     0   101     0 -6.8123065203e+01  3.2378432036e+01  5.2211987624e+01  9.1859928834e+01  4.8000000000e+00 0. 9.
      -24     2     4     0     0     0  1.0118358674e+02  7.3870605733e+01 -2.0968022566e+02  2.5685364876e+02  7.9454485279e+01  1.048688e-14 9.
       -5     1     4     0     0   103  3.9410327812e+01  1.0443480767e+01  1.8586457081e+01  4.5063695095e+01  4.8000000000e+00 0. 9.
      -15     1     5     0     0     0 -1.1177730976e+01 -4.3836012924e+01 -1.7217380090e+01  4.8436896735e+01  1.7768200000e+00  5.372674e-02 9.
       16     1     5     0     0     0 -6.1293118372e+01 -7.2856505613e+01  7.2178544972e+01  1.1947660492e+02  0.0000000000e+00 0. 9.
        1     1     7     0   104     0  5.8172814563e+01  1.4674144039e+01 -4.0108539596e+01  7.2167934056e+01  3.3000000000e-01 0. 9.
       -2     1     7     0     0   104  4.3010772177e+01  5.9196461694e+01 -1.6957168607e+02  1.8468571471e+02  3.3000000000e-01 0. 9.
#pdf   21   21  3.675155e-02  4.966241e-02  2.337461e+02  2.599533e+00  1.895640e+00
</event>
<event>
    12  9999  1.000000e+00  2.164326e+02  7.894862e-03  1.047317e-01
       21    -1     0     0   101   102  0.0000000000e+00  0.0000000000e+00  9.8809381207e+01  9.8809381207e+01  0.0000000000e+00 0. 9.
       21    -1     0     0   102   103  0.0000000000e+00  0.0000000000e+00 -7.9264848461e+02  7.9264848461e+02  0.0000000000e+00 0. 9.
        6     2     1     2   101     0 -9.6918964588e+01  9.0842545909e+01 -6.4778765265e+01  2.2635297108e+02  1.7144598346e+02  1.270654e-13 9.
       -6     2     1     2     0   103  9.6918964588e+01 -9.0842545909e+01 -6.2906033814e+02  6.6510489474e+02  1.7029961286e+02  6.774781e-15 9.
       24     2     3     0     0     0 -1.3631139407e+01  9.5922537295e+01 -6.8378767028e+01  1.4269492814e+02  7.9367787007e+01  1.537577e-14 9.
        5     1     3     0   101     0 -8.3287825181e+01 -5.0799913864e+00  3.6000017635e+00  8.3658042940e+01  4.8000000000e+00 0. 9.
      -24     2     4     0     0     0  1.1088362450e+02 -6.3351989721e+01 -6.1713518156e+02  6.3169843181e+02  4.3340785085e+01  1.284120e-13 9.
       -5     1     4     0     0   103 -1.3964659908e+01 -2.7490556187e+01 -1.1925156583e+01  3.3406462928e+01  4.8000000000e+00 0. 9.
       -1     1     5     0     0   104 -2.6324424989e+01  7.3631849957e+01 -9.8800431656e+00  7.8818454895e+01  3.3000000000e-01 0. 9.
        2     1     5     0   104     0  1.2693285582e+01  2.2290687338e+01 -5.8498723863e+01  6.3876473247e+01  3.3000000000e-01 0. 9.
        3     1     7     0   105     0  2.3026738457e+01 -3.4305374119e+01 -1.5682455232e+02  1.6217669249e+02  5.0000000000e-01 0. 9.
       -4     1     7     0     0   105  8.7856886039e+01 -2.9046615602e+01 -4.6031062924e+02  4.6952173932e+02  1.5000000000e+00 0. 9.
#pdf   21   21  1.520144e-02  1.219459e-01  2.159806e+02  5.815050e+00  6.104200e-01
</event>
<event>
    12  9999  1.000000e+00  1.993518e+02  7.887440e-03  1.057768e-01
       21    -1     0     0   101   102  0.0000000000e+00  0.0000000000e+00  9.0797735878e+01  9.0797735878e+01  0.0000000000e+00 0. 9.
       21    -1     0     0   103   101  0.0000000000e+00  0.0000000000e+00 -1.0115448378e+03  1.0115448378e+03  0.0000000000e+00 0. 9.
        6     2     1     2   103     0  5.5108016985e+01  9.2401001455e+01 -8.7856724209e+02  9.0160034120e+02  1.7154573085e+02  3.270540e-13 9.
       -6     2     1     2     0   102 -5.5108016985e+01 -9.2401001455e+01 -4.2179859844e+01  2.0074223249e+02  1.6414464573e+02  2.382546e-14 9.
       24     2     3     0     0     0  1.8658326317e+01 -1.8163189936e+01 -3.7201906398e+02  3.8182431529e+02  8.1936494736e+01  8.164850e-14 9.
        5     1     3     0   103     0  3.6449690668e+01  1.1056419139e+02 -5.0654817811e+02  5.1977602592e+02  4.8000000000e+00 0. 9.
      -24     2     4     0     0     0 -6.8295354721e+01 -1.2055723218e+02 -4.7233971501e+01  1.6887903663e+02  8.4206764825e+01  1.744399e-14 9.
       -5     1     4     0     0   102  1.3187337737e+01  2.8156230730e+01  5.0541116568e+00  3.1863195856e+01  4.8000000000e+00 0. 9.
      -13     1     5     0     0     0 -3.3568613988e+00  2.4108701547e+01 -2.4417007975e+02  2.4538039249e+02  1.0566000000e-01  2.639848e+04 9.
       14     1     5     0     0     0  2.2015187716e+01 -4.2271891483e+01 -1.2784898423e+02  1.3644392280e+02  0.0000000000e+00 0. 9.
        1     1     7     0   104     0 -8.7160772444e+01 -1.0985511325e+02 -3.7901111747e+01  1.4526441178e+02  3.3000000000e-01 0. 9.
       -2     1     7     0     0   104  1.8865417723e+01 -1.0702118939e+01 -9.3328597535e+00  2.3614624850e+01  3.3000000000e-01 0. 9.
#pdf   21   21  1.396888e-02  1.556223e-01  1.962608e+02  6.236156e+00  4.208798e-01
</event>
<event>
    12  9999  1.000000e+00  1.707105e+02  7.873473e-03  1.078098e-01
       21    -1     0     0   101   102  0.0000000000e+00  0.0000000000e+00  5.8531666033e+02  5.8531666033e+02  0.0000000000e+00 0. 9.
       21    -1     0     0   102   103  0.0000000000e+00  0.0000000000e+00 -5.6499976527e+01  5.6499976527e+01  0.0000000000e+00 0. 9.
        6     2     1     2   101     0  1.6603561513e+00 -1.1769646224e+01  3.7463005039e+02  4.1157635750e+02  1.7001806387e+02  7.951442e-15 9.
       -6     2     1     2     0   103 -1.6603561513e+00  1.1769646224e+01  1.5418663341e+02  2.3024027936e+02  1.7057487201e+02  2.930168e-13 9.
       24     2     3     0     0     0  4.7416354524e+01  1.2492979360e+01  3.2654981891e+02  3.4074532583e+02  8.4072633112e+01  3.894881e-14 9.
        5     1     3     0   101     0 -4.5755998373e+01 -2.4262625584e+01  4.8080231482e+01  7.0831031664e+01  4.8000000000e+00 0. 9.
      -24     2     4     0     0     0 -3.3512981791e+01  1.2052839927e+01  1.7320984705e+02  1.9282914979e+02  7.6896287271e+01  1.325879e-13 9.
       -5     1     4     0     0   103  3.1852625640e+01 -2.8319370327e-01 -1.9023213632e+01  3.7411129571e+01  4.8000000000e+00 0. 9.
       -1     1     5     0     0   104  1.4124670046e+01 -3.5843378980e+01  1.3656174745e+02  1.4189247298e+02  3.3000000000e-01 0. 9.
        4     1     5     0   104     0  3.3291684478e+01  4.8336358340e+01  1.8998807146e+02  1.9885285286e+02  1.5000000000e+00 0. 9.
        3     1     7     0   105     0 -3.2298372496e+01 -2.8245791821e+01  1.0716395194e+02  1.1543557605e+02  5.0000000000e-01 0. 9.
       -4     1     7     0     0   105 -1.2146092949e+00  4.0298631748e+01  6.6045895102e+01  7.7393573741e+01  1.5000000000e+00 0. 9.
#pdf   21   21  9.004872e-02  8.692304e-03  1.704330e+02  9.559347e-01  9.001366e+00
</event>
<event>
    12  9999  1.000000e+00  2.159992e+02  7.894681e-03  1.047569e-01
       21    -1     0     0   101   102  0.0000000000e+00  0.0000000000e+00  2.5023759057e+02  2.5023759057e+02  0.0000000000e+00 0. 9.
       21    -1     0     0   103   101  0.0000000000e+00  0.0000000000e+00 -2.7137897510e+02  2.7137897510e+02  0.0000000000e+00 0. 9.
        6     2     1     2   103     0  2.1577106288e+01 -1.2923274204e+02 -1.5647021582e+02  2.6656693152e+02  1.7148856350e+02  9.300997e-13 9.
       -6     2     1     2     0   102 -2.1577106288e+01  1.2923274204e+02  1.3532883129e+02  2.5504963415e+02  1.7195857108e+02  4.196781e-15 9.
       24     2     3     0     0     0 -3.2438997913e+01 -7.4639797193e+01 -1.4891216164e+02  1.8924750755e+02  8.3763949993e+01  3.668020e-13 9.
        5     1     3     0   103     0  5.4016104200e+01 -5.4592944850e+01 -7.5580541735e+00  7.7319423972e+01  4.8000000000e+00 0. 9.
      -24     2     4     0     0     0 -4.5608823133e+01  1.0118339647e+02  1.5984724619e+02  2.1045723714e+02  8.0142760618e+01  9.894623e-15 9.
       -5     1     4     0     0   102  2.4031716846e+01  2.8049345572e+01 -2.4518414902e+01  4.4592397008e+01  4.8000000000e+00 0. 9.
      -15     1     5     0     0     0 -2.2863411426e+01  5.7955624600e+00 -7.8276615453e+01  8.1772304250e+01  1.7768200000e+00  9.422299e-03 9.
       16     1     5     0     0     0 -9.5755864871e+00 -8.0435359653e+01 -7.0635546190e+01  1.0747520330e+02  0.0000000000e+00 0. 9.
        3     1     7     0   104     0 -4.2024100370e+01  1.1035980110e+02  1.6179067828e+02  2.0030422933e+02  5.0000000000e-01 0. 9.
       -4     1     7     0     0   104 -3.5847227632e+00 -9.1764046284e+00 -1.9434320880e+00  1.0153007804e+01  1.5000000000e+00 0. 9.
#pdf   21   21  3.849809e-02  4.175061e-02  2.158124e+02  2.490528e+00  2.291567e+00
</event>
<event>
    12  9999  1.000000e+00  2.481298e+02  7.907234e-03  1.030397e-01
       21    -1     0     0   101   102  0.0000000000e+00  0.0000000000e+00  6.3950199690e+01  6.3950199690e+01  0.0000000000e+00 0. 9.
       21    -1     0     0   103   101  0.0000000000e+00  0.0000000000e+00 -1.1308935706e+03  1.1308935706e+03  0.0000000000e+00 0. 9.
        6     2     1     2   103     0  1.1761126811e+02 -1.3598312437e+02 -7.6402957054e+02  8.0334535010e+02  1.7116876571e+02  7.006609e-14 9.
       -6     2     1     2     0   102 -1.1761126811e+02  1.3598312437e+02 -3.0291380041e+02  3.9149842024e+02  1.7085204731e+02  1.261550e-13 9.
       24     2     3     0     0     0  1.8992696339e+01 -5.9630983272e+00 -1.9919115562e+02  2.1538590860e+02  7.9483910891e+01  1.190718e-13 9.
        5     1     3     0   103     0  9.8618571773e+01 -1.3002002604e+02 -5.6483841492e+02  5.8795944149e+02  4.8000000000e+00 0. 9.
      -24     2     4     0     0     0 -9.8748551006e+01  1.2487377983e+02 -1.3756085737e+02  2.2463363845e+02  7.8692724083e+01  2.246215e-13 9.
       -5     1     4     0     0   102 -1.8862717106e+01  1.1109344532e+01 -1.6535294304e+02  1.6686478179e+02  4.8000000000e+00 0. 9.
       -1     1     5     0     0   104 -2.5878439728e+01 -1.5322140683e+01 -1.2162060480e+02  1.2528424502e+02  3.3000000000e-01 0. 9.
        2     1     5     0   104     0  4.4871136066e+01  9.3590423554e+00 -7.7570550819e+01  9.0101663581e+01  3.3000000000e-01 0. 9.
       15     1     7     0     0     0 -3.5583266585e+01  3.4842611360e+01 -9.3901355231e+01  1.0630521168e+02  1.7768200000e+00  3.444632e-01 9.
      -16     1     7     0     0     0 -6.3165284421e+01  9.0031168474e+01 -4.3659502144e+01  1.1832842676e+02  0.0000000000e+00 0. 9.
#pdf   21   21  9.838492e-03  1.739836e-01  2.480206e+02  8.235190e+00  3.347539e-01
</event>
<event>
    12  9999  1.000000e+00  1.734102e+02  7.874884e-03  1.075983e-01
        1    -1     0     0   101     0  0.0000000000e+00  0.0000000000e+00  7.8718043594e+01  7.8718043594e+01  0.0000000000e+00 0. 9.
       -1    -1     0     0     0   102  0.0000000000e+00  0.0000000000e+00 -6.0987683792e+02  6.0987683792e+02  0.0000000000e+00 0. 9.
        6     2     1     2   101     0 -2.3348017525e+01  2.1757428577e+01 -5.3842668925e+01  1.8028855634e+02  1.6907517538e+02  1.642438e-13 9.
       -6     2     1     2     0   102  2.3348017525e+01 -2.1757428577e+01 -4.7731612540e+02  5.0830632518e+02  1.7183166479e+02  1.593729e-13 9.
       24     2     3     0     0     0  2.5505447101e+01  2.9689686424e+01  2.0443202428e+01  9.0896093550e+01  7.9449166046e+01  2.389374e-13 9.
        5     1     3     0   101     0 -4.8853464626e+01 -7.9322578473e+00 -7.4285871352e+01  8.9392462787e+01  4.8000000000e+00 0. 9.
      -24     2     4     0     0     0  6.2745612687e+01 -4.7987221826e+01 -2.3390711120e+02  2.6029188859e+02  8.2459355008e+01  1.177383e-13 9.
       -5     1     4     0     0   102 -3.9397595162e+01  2.6229793249e+01 -2.4340901420e+02  2.4801443658e+02  4.8000000000e+00 0. 9.
       -1     1     5     0     0   103 -2.7845351969e+01  1.2234607033e+01  1.6547960868e+01  3.4626480393e+01  3.3000000000e-01 0. 9.
        2     1     5     0   103     0  5.3350799070e+01  1.7455079391e+01  3.8952415598e+00  5.6269613157e+01  3.3000000000e-01 0. 9.
        3     1     7     0   104     0 -1.7509929386e+01 -2.2993974974e+01 -7.7619881897e+01  8.2827631729e+01  5.0000000000e-01 0. 9.
       -4     1     7     0     0   104  8.0255542073e+01 -2.4993246852e+01 -1.5628722930e+02  1.7746425686e+02  1.5000000000e+00 0. 9.
#pdf    1   -1  1.211047e-02  9.382721e-02  1.720608e+02  6.367884e-01  1.025118e-01
</event>
<event>
    12  9999  1.000000e+00  1.750861e+02  7.875749e-03  1.074706e-01
       21    -1     0     0   101   102  0.0000000000e+00  0.0000000000e+00  1.5671978482e+02  1.5671978482e+02  0.0000000000e+00 0. 9.
       21    -1     0     0   102   103  0.0000000000e+00  0.0000000000e+00 -2.9273028534e+02  2.9273028534e+02  0.0000000000e+00 0. 9.
        6     2     1     2   101     0  3.3487370840e+01  4.4725753111e+01  5.9640818796e+01  1.9086154105e+02  1.7247986430e+02  3.083414e-14 9.
       -6     2     1     2     0   103 -3.3487370840e+01 -4.4725753111e+01 -1.9565131932e+02  2.5858852911e+02  1.5958318094e+02  5.618004e-13 9.
       24     2     3     0     0     0 -5.4150580052e+00  8.4528429707e+00 -3.0756929087e+01  8.5866704020e+01  7.9538222038e+01  1.307122e-13 9.
        5     1     3     0   101     0  3.8902428845e+01  3.6272910140e+01  9.0397747883e+01  1.0499483703e+02  4.8000000000e+00 0. 9.
      -24     2     4     0     0     0 -2.3063908276e+01 -8.8378064200e+01 -1.5492117882e+02  1.9779249980e+02  8.2332710586e+01  8.319148e-15 9.
       -5     1     4     0     0   103 -1.0423462564e+01  4.3652311089e+01 -4.0730140503e+01  6.0796029316e+01  4.8000000000e+00 0. 9.
       -1     1     5     0     0   104 -2.4819532454e+01  2.6124014697e+01  9.9926611771e+00  3.7395661681e+01  3.3000000000e-01 0. 9.
        2     1     5     0   104     0  1.9404474449e+01 -1.7671171726e+01 -4.0749590264e+01  4.8471042340e+01  3.3000000000e-01 0. 9.
        3     1     7     0   105     0 -1.1622015602e+01 -3.5414596320e+01 -1.3498371149e+02  1.4003612836e+02  5.0000000000e-01 0. 9.
       -4     1     7     0     0   105 -1.1441892675e+01 -5.2963467880e+01 -1.9937467331e+01  5.7756371436e+01  1.5000000000e+00 0. 9.
#pdf   21   21  2.411074e-02  4.503543e-02  1.690816e+02  3.925039e+00  2.145841e+00
</event>
<event>
    12  9999  1.000000e+00  1.880145e+02  7.882161e-03  1.065342e-01
       21    -1     0     0   101   102  0.0000000000e+00  0.0000000000e+00  5.1474810564e+02  5.1474810564e+02  0.0000000000e+00 0. 9.
       21    -1     0     0   102   103  0.0000000000e+00  0.0000000000e+00 -6.8883703413e+01  6.8883703413e+01  0.0000000000e+00 0. 9.
        6     2     1     2   101     0 -7.5355077235e+01  2.4140948090e+01  2.0718577150e+02  2.7999065340e+02  1.7090245474e+02  2.887407e-14 9.
       -6     2     1     2     0   103  7.5355077235e+01 -2.4140948090e+01  2.3867863072e+02  3.0364115566e+02  1.7020367095e+02  6.775598e-14 9.
       24     2     3     0     0     0 -6.1706397717e+01  5.0851077412e+01  2.2018772502e+02  2.4694813145e+02  7.8148792596e+01  1.219698e-15 9.
        5     1     3     0   101     0 -1.3648679518e+01 -2.6710129322e+01 -1.3001953519e+01  3.3042521942e+01  4.8000000000e+00 0. 9.
      -24     2     4     0     0     0  5.4906094571e+01  1.3614329123e+01  4.4577758601e+01  1.0478992884e+02  7.6116512304e+01  6.031130e-14 9.
       -5     1     4     0     0   103  2.0448982664e+01 -3.7755277213e+01  1.9410087212e+02  1.9885122682e+02  4.8000000000e+00 0. 9.
      -13     1     5     0     0     0 -1.5913597195e+00  5.3289279585e+00 -6.2016722715e+00  8.3307743903e+00  1.0566000000e-01  4.920214e+05 9.
       14     1     5     0     0     0 -6.0115037998e+01  4.5522149453e+01  2.2638939729e+02  2.3861735706e+02  0.0000000000e+00 0. 9.
        3     1     7     0   104     0  1.4592667837e+01  4.1089136063e+01  9.3533604466e+00  4.4598188401e+01  5.0000000000e-01 0. 9.
       -4     1     7     0     0   104  4.0313426734e+01 -2.7474806940e+01  3.5224398154e+01  6.0191740436e+01  1.5000000000e+00 0. 9.
#pdf   21   21  7.919202e-02  1.059749e-02  1.876978e+02  1.117015e+00  7.757973e+00
</event>
<event>
    12  9999  1.000000e+00  2.151188e+02  7.894312e-03  1.048084e-01
       21    -1     0     0   101   102  0.0000000000e+00  0.0000000000e+00  1.0537411090e+03  1.0537411090e+03  0.0000000000e+00 0. 9.
       21    -1     0     0   103   101  0.0000000000e+00  0.0000000000e+00 -8.3963621509e+01  8.3963621509e+01  0.0000000000e+00 0. 9.
        6     2     1     2   103     0 -1.6049957238e+01 -1.3101784683e+02  9.0463890939e+01  2.3214077546e+02  1.6817356139e+02  4.973660e-13 9.
       -6     2     1     2     0   102  1.6049957238e+01  1.3101784683e+02  8.7931359651e+02  9.0556395501e+02  1.7155290229e+02  9.775365e-14 9.
       24     2     3     0     0     0  5.2422812937e+01 -7.2336195225e+01  4.0266371466e+01  1.2882142852e+02  8.3623581115e+01  1.657705e-14 9.
        5     1     3     0   103     0 -6.8472770175e+01 -5.8681651609e+01  5.0197519473e+01  1.0331934694e+02  4.8000000000e+00 0. 9.
      -24     2     4     0     0     0 -3.0987067489e+01  1.1535936212e+02  4.3651849146e+02  4.5997646091e+02  8.2231201041e+01  9.707433e-14 9.
       -5     1     4     0     0   102  4.7037024726e+01  1.5658484710e+01  4.4279510506e+02  4.4558749410e+02  4.8000000000e+00 0. 9.
       -3     1     5     0     0   104  1.6441062671e+01 -8.0499289121e+01  4.1135036963e+01  9.1884630688e+01  5.0000000000e-01 0. 9.
        4     1     5     0   104     0  3.5981750266e+01  8.1630938957e+00 -8.6866549710e-01  3.6936797830e+01  1.5000000000e+00 0. 9.
        1     1     7     0   105     0 -2.2918530038e+01 -2.0382701532e-03  3.2754130283e+01  3.9977505848e+01  3.3000000000e-01 0. 9.
       -2     1     7     0     0   105 -8.0685374511e+00  1.1536140040e+02  4.0376436117e+02  4.1999895506e+02  3.3000000000e-01 0. 9.
#pdf   21   21  1.621140e-01  1.291748e-02  2.137887e+02  3.878378e-01  6.641473e+00
</event>
<event>
    12  9999  1.000000e+00  2.579941e+02  7.910770e-03  1.025672e-01
       21    -1     0     0   101   102  0.0000000000e+00  0.0000000000e+00  1.5682168838e+02  1.5682168838e+02  0.0000000000e+00 0. 9.
       21    -1     0     0   102   103  0.0000000000e+00  0.0000000000e+00 -1.3497595744e+03  1.3497595744e+03  0.0000000000e+00 0. 9.
        6     2     1     2   101     0  1.8512459407e+02 -5.9591424800e+01  2.7998994190e+01  2.5846562582e+02  1.6792344332e+02  3.096886e-13 9.
       -6     2     1     2     0   103 -1.8512459407e+02  5.9591424800e+01 -1.2209368802e+03  1.2481156370e+03  1.7112429554e+02  4.323844e-14 9.
       24     2     3     0     0     0  1.0911361952e+02  1.0214096031e+01 -3.2746057476e+01  1.3861788787e+02  7.8310311166e+01  5.863043e-14 9.
        5     1     3     0   101     0  7.6010974546e+01 -6.9805520831e+01  6.0745051666e+01  1.1984773795e+02  4.8000000000e+00 0. 9.
      -24     2     4     0     0     0 -1.2003979602e+02  9.1001000554e+01 -1.0316582368e+03  1.0454532645e+03  7.7220954592e+01  1.901624e-13 9.
       -5     1     4     0     0   103 -6.5084798051e+01 -3.1409575754e+01 -1.8927864343e+02  2.0266237254e+02  4.8000000000e+00 0. 9.
       -3     1     5     0     0   104  9.5289642391e+01 -2.2692229851e+01 -3.1413543008e+01  1.0286940229e+02  5.0000000000e-01 0. 9.
        4     1     5     0   104     0  1.3823977132e+01  3.2906325882e+01 -1.3325144679e+00  3.5748485585e+01  1.5000000000e+00 0. 9.
       15     1     7     0     0     0 -4.8279855600e+01  7.5436382293e+01 -4.2297693595e+02  4.3235892226e+02  1.7768200000e+00  6.729862e-02 9.
      -16     1     7     0     0     0 -7.1759940419e+01  1.5564618261e+01 -6.0868130088e+02  6.1309434219e+02  0.0000000000e+00 0. 9.
#pdf   21   21  2.412641e-02  2.076553e-01  2.569446e+02  3.877852e+00  2.367031e-01
</event>
<event>
    12  9999  1.000000e+00  2.033110e+02  7.889214e-03  1.055249e-01
       21    -1     0     0   101   102  0.0000000000e+00  0.0000000000e+00  2.1941895091e+02  2.1941895091e+02  0.0000000000e+00 0. 9.
       21    -1     0     0   103   101  0.0000000000e+00  0.0000000000e+00 -3.2656775193e+02  3.2656775193e+02  0.0000000000e+00 0. 9.
        6     2     1     2   103     0  5.9304361610e+01  9.2097852589e+01 -2.3115480028e+02  3.0785036910e+02  1.7129006482e+02  2.163775e-14 9.
       -6     2     1     2     0   102 -5.9304361610e+01 -9.2097852589e+01  1.2400599926e+02  2.3813633373e+02  1.7126705414e+02  2.622878e-13 9.
       24     2     3     0     0     0  8.6616381013e+01  1.0277933687e+02 -1.3413291131e+02  2.0637954842e+02  8.0838669965e+01  3.561896e-13 9.
        5     1     3     0   103     0 -2.7312019402e+01 -1.0681484283e+01 -9.7021888978e+01  1.0147082069e+02  4.8000000000e+00 0. 9.
      -24     2     4     0     0     0  1.3904858203e+01 -8.1397950396e+01  3.0058343396e+01  1.1845642809e+02  7.9432046038e+01  1.417593e-14 9.
       -5     1     4     0     0   102 -7.3209219813e+01 -1.0699902193e+01  9.3947655863e+01  1.1967990564e+02  4.8000000000e+00 0. 9.
      -15     1     5     0     0     0  1.6790357492e+01 -2.7974420725e+00  5.4398069347e+00  1.7958017030e+01  1.7768200000e+00  5.810127e-02 9.
       16     1     5     0     0     0  6.9826023521e+01  1.0557677894e+02 -1.3957271824e+02  1.8842153139e+02  0.0000000000e+00 0. 9.
        1     1     7     0   104     0  2.2318333125e+00 -1.2496716113e+01  4.5188193356e+01  4.6938584473e+01  3.3000000000e-01 0. 9.
       -4     1     7     0     0   104  1.1673024890e+01 -6.8901234283e+01 -1.5129849960e+01  7.1517843617e+01  1.5000000000e+00 0. 9.
#pdf   21   21  3.375676e-02  5.024119e-02  2.033013e+02  2.847155e+00  1.888876e+00
</event>
<event>
    12  9999  1.000000e+00  2.248267e+02  7.898303e-03  1.042550e-01
       21    -1     0     0   101   102  0.0000000000e+00  0.0000000000e+00  2.2178352547e+02  2.2178352547e+02  0.0000000000e+00 0. 9.
       21    -1     0     0   102   103  0.0000000000e+00  0.0000000000e+00 -2.4733924492e+02  2.4733924492e+02  0.0000000000e+00 0. 9.
        6     2     1     2   101     0 -1.1447454491e+02 -8.9448215844e+01  5.2990513369e+01  2.3037076716e+02  1.7075506173e+02  4.419338e-13 9.
       -6     2     1     2     0   103  1.1447454491e+02  8.9448215844e+01 -7.8546232815e+01  2.3875200322e+02  1.7241694697e+02  5.635829e-16 9.
       24     2     3     0     0     0 -1.2870853454e+02 -9.2597339922e+01  2.2834658031e+00  1.7739182685e+02  7.9514098079e+01  7.445269e-14 9.
        5     1     3     0   101     0  1.4233989633e+01  3.1491240778e+00  5.0707047565e+01  5.2978940308e+01  4.8000000000e+00 0. 9.
      -24     2     4     0     0     0  1.0267272001e+02  1.2566442328e+02 -8.3428902231e+01  2.0005087646e+02  8.2016685710e+01  1.037222e-15 9.
       -5     1     4     0     0   103  1.1801824901e+01 -3.6216207433e+01  4.8826694160e+00  3.8701126759e+01  4.8000000000e+00 0. 9.
       -1     1     5     0     0   104 -9.2935885780e+01 -3.0125157679e+01  2.6860324593e+01  1.0132220847e+02  3.3000000000e-01 0. 9.
        2     1     5     0   104     0 -3.5772648763e+01 -6.2472182243e+01 -2.4576858790e+01  7.6069618388e+01  3.3000000000e-01 0. 9.
        1     1     7     0   105     0  7.5647849486e+01  6.6230308898e+01 -8.8703319176e+00  1.0093484352e+02  3.3000000000e-01 0. 9.
       -4     1     7     0     0   105  2.7024870523e+01  5.9434114379e+01 -7.4558570314e+01  9.9116032942e+01  1.5000000000e+00 0. 9.
#pdf   21   21  3.412054e-02  3.805219e-02  2.241934e+02  2.804821e+00  2.515153e+00
</event>
<event>
    12  9999  1.000000e+00  1.885787e+02  7.882431e-03  1.064951e-01
       -2    -1     0     0     0   101  0.0000000000e+00  0.0000000000e+00  8.2411682248e+01  8.2411682248e+01  0.0000000000e+00 0. 9.
        2    -1     0     0   102     0  0.0000000000e+00  0.0000000000e+00 -7.2820323747e+02  7.2820323747e+02  0.0000000000e+00 0. 9.
       -6     2     1     2     0   101  7.9309135678e+01 -1.7796642779e+01 -5.8225016160e+02  6.1222529965e+02  1.7087395168e+02  1.618808e-14 9.
        6     2     1     2   102     0 -7.9309135678e+01  1.7796642779e+01 -6.3541393622e+01  1.9838962006e+02  1.6945286409e+02  1.031466e-13 9.
      -24     2     3     0     0     0  1.9920679786e+01  4.1928814132e+01 -1.9385104714e+02  2.1476960274e+02  7.9955580465e+01  7.039152e-14 9.
       -5     1     3     0     0   101  5.9388455892e+01 -5.9725456912e+01 -3.8839911446e+02  3.9745569691e+02  4.8000000000e+00 0. 9.
       24     2     4     0     0     0 -5.3751052161e+01 -1.8565967137e+00  2.9331016283e+01  9.9963048561e+01  7.8991645138e+01  1.619953e-13 9.
        5     1     4     0   102     0 -2.5558083518e+01  1.9653239493e+01 -9.2872409905e+01  9.8426571500e+01  4.8000000000e+00 0. 9.
        3     1     5     0   103     0  4.2693732686e+01  1.0964367001e+00 -6.5844431147e+01  7.8483731417e+01  5.0000000000e-01 0. 9.
       -4     1     5     0     0   103 -2.2773052900e+01  4.0832377432e+01 -1.2800661599e+02  1.3628587132e+02  1.5000000000e+00 0. 9.
       -1     1     7     0     0   104 -3.8466338982e+01  3.5284591338e+01  3.7285498351e+00  5.2332328484e+01  3.3000000000e-01 0. 9.
        2     1     7     0   104     0 -1.5284713178e+01 -3.7141188052e+01  2.5602466448e+01  4.7630720077e+01  3.3000000000e-01 0. 9.
#pdf   -2    2  1.267872e-02  1.120313e-01  1.879386e+02  4.511662e-01  5.653633e-01
</event>
<event>
    12  9999  1.000000e+00  2.212845e+02  7.896867e-03  1.044534e-01
       21    -1     0     0   101   102  0.0000000000e+00  0.0000000000e+00  4.4841280611e+01  4.4841280611e+01  0.0000000000e+00 0. 9.
       21    -1     0     0   102   103  0.0000000000e+00  0.0000000000e+00 -1.0924239699e+03  1.0924239699e+03  0.0000000000e+00 0. 9.
        6     2     1     2   101     0 -1.1929005282e+02  7.5806619195e+01 -5.3436068980e+02  5.7827496937e+02  1.6995244386e+02  1.887486e-13 9.
       -6     2     1     2     0   103  1.1929005282e+02 -7.5806619195e+01 -5.1322199952e+02  5.5899028118e+02  1.7057711875e+02  1.703441e-14 9.
       24     2     3     0     0     0 -1.3381340204e+02  1.3425954076e+01 -3.5722593250e+02  3.8985512621e+02  7.9311851371e+01  7.290993e-15 9.
        5     1     3     0   101     0  1.4523349217e+01  6.2380665119e+01 -1.7713475730e+02  1.8841984316e+02  4.8000000000e+00 0. 9.
      -24     2     4     0     0     0 -8.6438990119e-01 -3.4850855475e+00 -1.9872992841e+02  2.1461287610e+02  8.0945717313e+01  8.734995e-15 9.
       -5     1     4     0     0   103  1.2015444273e+02 -7.2321533648e+01 -3.1449207111e+02  3.4437740508e+02  4.8000000000e+00 0. 9.
       -3     1     5     0     0   104 -1.1339522571e+02  8.0214403497e-01 -1.9277851123e+02  2.2365805382e+02  5.0000000000e-01 0. 9.
        4     1     5     0   104     0 -2.0418176333e+01  1.2623810041e+01 -1.6444742128e+02  1.6619707239e+02  1.5000000000e+00 0. 9.
        3     1     7     0   105     0  4.1317904979e+00  2.5799371843e+01 -1.7393858665e+02  1.7589076498e+02  5.0000000000e-01 0. 9.
       -4     1     7     0     0   105 -4.9961803991e+00 -2.9284457391e+01 -2.4791341760e+01  3.8722111119e+01  1.5000000000e+00 0. 9.
#pdf   21   21  6.898659e-03  1.680652e-01  2.210443e+02  1.073723e+01  3.624406e-01
</event>
<event>
    12  9999  1.000000e+00  2.236031e+02  7.897809e-03  1.043231e-01
       21    -1     0     0   101   102  0.0000000000e+00  0.0000000000e+00  1.3428131589e+02  1.3428131589e+02  0.0000000000e+00 0. 9.
       21    -1     0     0   103   101  0.0000000000e+00  0.0000000000e+00 -3.7555648454e+02  3.7555648454e+02  0.0000000000e+00 0. 9.
        6     2     1     2   103     0  8.4265413625e+01  1.0616524497e+02 -9.5123539179e+01  2.3863714916e+02  1.7183562518e+02  2.145044e-13 9.
       -6     2     1     2     0   102 -8.4265413625e+01 -1.0616524497e+02 -1.4615162948e+02  2.7120065127e+02  1.8389609914e+02  2.319459e-13 9.
       24     2     3     0     0     0  2.2039065453e+01  6.1553567663e+01  1.3940579137e+01  1.0529420011e+02  8.1350886483e+01  4.810479e-14 9.
        5     1     3     0   103     0  6.2226348171e+01  4.4611677303e+01 -1.0906411832e+02  1.3334294905e+02  4.8000000000e+00 0. 9.
      -24     2     4     0     0     0 -5.8795719526e+01 -1.0472605288e+02 -2.4210730273e+01  1.4652748058e+02  8.0372012031e+01  1.110092e-15 9.
       -5     1     4     0     0   102 -2.5469694099e+01 -1.4391920869e+00 -1.2194089920e+02  1.2467317069e+02  4.8000000000e+00 0. 9.
      -13     1     5     0     0     0 -8.4393963215e-01  3.0534760305e+01 -3.2725843901e+01  4.4766905679e+01  1.0566000000e-01  1.375530e+06 9.
       14     1     5     0     0     0  2.2883005085e+01  3.1018807358e+01  4.6666423038e+01  6.0527294429e+01  0.0000000000e+00 0. 9.
       11     1     7     0     0     0 -5.4249625833e+01 -7.0323283102e+01  1.9283720746e+01  9.0885906143e+01  5.1100000000e-04 0. 9.
      -12     1     7     0     0     0 -4.5460936925e+00 -3.4402769777e+01 -4.3494451019e+01  5.5641574435e+01  0.0000000000e+00 0. 9.
#pdf   21   21  2.065866e-02  5.777792e-02  2.188589e+02  4.476045e+00  1.608345e+00
</event>
<event>
    12  9999  1.000000e+00  4.043116e+02  7.951746e-03  9.742275e-02
       21    -1     0     0   101   102  0.0000000000e+00  0.0000000000e+00  9.6076418042e+02  9.6076418042e+02  0.0000000000e+00 0. 9.
       21    -1     0     0   102   103  0.0000000000e+00  0.0000000000e+00 -1.7794646782e+02  1.7794646782e+02  0.0000000000e+00 0. 9.
        6     2     1     2   101     0 -2.0640760637e+02  3.0250359858e+02  5.1080737293e+02  6.5157070452e+02  1.7177800683e+02  1.476044e-14 9.
       -6     2     1     2     0   103  2.0640760637e+02 -3.0250359858e+02  2.7201033967e+02  4.8713994371e+02  1.7088935822e+02  1.259496e-13 9.
       24     2     3     0     0     0 -1.2204623883e+02  8.0278007917e+01  2.2121298002e+02  2.7688549547e+02  7.9940928840e+01  2.401783e-13 9.
        5     1     3     0   101     0 -8.4361367540e+01  2.2222559066e+02  2.8959439292e+02  3.7468520906e+02  4.8000000000e+00 0. 9.
      -24     2     4     0     0     0  1.4465035233e+02 -2.9859304973e+02  2.4123256128e+02  4.1786106915e+02  7.9581346496e+01  6.132809e-14 9.
       -5     1     4     0     0   103  6.1757254035e+01 -3.9105488492e+00  3.0777778383e+01  6.9278874561e+01  4.8000000000e+00 0. 9.
       -1     1     5     0     0   104 -1.2882066926e+00 -1.3456785222e+01  1.5091684047e+01  2.0263572547e+01  3.3000000000e-01 0. 9.
        2     1     5     0   104     0 -1.2075803214e+02  9.3734793139e+01  2.0612129597e+02  2.5662192292e+02  3.3000000000e-01 0. 9.
        1     1     7     0   105     0  5.8944070768e+01 -1.5356653716e+02  7.3608400573e+01  1.8020929596e+02  3.3000000000e-01 0. 9.
       -4     1     7     0     0   105  8.5706281566e+01 -1.4502651257e+02  1.6762416071e+02  2.3765177319e+02  1.5000000000e+00 0. 9.
#pdf   21   21  1.478099e-01  2.737638e-02  4.041234e+02  4.154976e-01  3.392735e+00
</event>
<event>
    12  9999  1.000000e+00  2.310992e+02  7.900793e-03  1.039130e-01
       21    -1     0     0   101   102  0.0000000000e+00  0.0000000000e+00  1.1727809523e+02  1.1727809523e+02  0.0000000000e+00 0. 9.
       21    -1     0     0   102   103  0.0000000000e+00  0.0000000000e+00 -4.7696134106e+02  4.7696134106e+02  0.0000000000e+00 0. 9.
        6     2     1     2   101     0 -1.4169855431e+02 -6.3411706008e+01 -1.1666022974e+02  2.5888887605e+02  1.7121424060e+02  8.748689e-14 9.
       -6     2     1     2     0   103  1.4169855431e+02  6.3411706008e+01 -2.4302301609e+02  3.3535056024e+02  1.7117326646e+02  1.809502e-13 9.
       24     2     3     0     0     0 -2.0695550642e+01  3.4871915817e+00 -9.5788624046e+00  8.3941316401e+01  8.0708882242e+01  3.316678e-14 9.
        5     1     3     0   101     0 -1.2100300367e+02 -6.6898897589e+01 -1.0708136734e+02  1.7494755965e+02  4.8000000000e+00 0. 9.
      -24     2     4     0     0     0  1.0539433998e+02  5.9058900494e+00 -7.3844447613e+01  1.5295170367e+02  8.2452257549e+01  1.895943e-14 9.
       -5     1     4     0     0   103  3.6304214333e+01  5.7505815958e+01 -1.6917856847e+02  1.8239885657e+02  4.8000000000e+00 0. 9.
      -13     1     5     0     0     0  1.3702671264e+00  2.4699646062e+01 -3.5882578440e+01  4.3583491681e+01  1.0566000000e-01  7.824963e+04 9.
       14     1     5     0     0     0 -2.2065817768e+01 -2.1212454480e+01  2.6303716035e+01  4.0357824720e+01  0.0000000000e+00 0. 9.
        3     1     7     0   104     0  2.4366602159e+01 -2.0617087312e+01 -5.8023316696e+01  6.6225001853e+01  5.0000000000e-01 0. 9.
       -4     1     7     0     0   104  8.1027737820e+01  2.6522977361e+01 -1.5821130916e+01  8.6726701816e+01  1.5000000000e+00 0. 9.
#pdf   21   21  1.804278e-02  7.337867e-02  2.310840e+02  5.028884e+00  1.205948e+00
</event>
<event>
    12  9999  1.000000e+00  2.292709e+02  7.900074e-03  1.040115e-01
       21    -1     0     0   101   102  0.0000000000e+00  0.0000000000e+00  1.1040834957e+02  1.1040834957e+02  0.0000000000e+00 0. 9.
       21    -1     0     0   102   103  0.0000000000e+00  0.0000000000e+00 -5.1184834404e+02  5.1184834404e+02  0.0000000000e+00 0. 9.
        6     2     1     2   101     0 -1.5214723716e+02 -8.3783800459e+00 -2.8306048561e+02  3.6435266861e+02  1.7149533400e+02  6.038640e-14 9.
       -6     2     1     2     0   103  1.5214723716e+02  8.3783800459e+00 -1.1837950886e+02  2.5790402500e+02  1.7111925363e+02  3.517395e-13 9.
       24     2     3     0     0     0 -8.6679174119e+01 -6.5746536198e+01 -2.1544874040e+02  2.5402787218e+02  7.9221927863e+01  3.883257e-14 9.
        5     1     3     0   101     0 -6.5468063038e+01  5.7368156152e+01 -6.7611745206e+01  1.1032479643e+02  4.8000000000e+00 0. 9.
      -24     2     4     0     0     0  1.3924203097e+02  2.2418869899e+00 -2.4104568418e+01  1.6243148816e+02  8.0059908088e+01  1.038785e-14 9.
       -5     1     4     0     0   103  1.2905206193e+01  6.1364930559e+00 -9.4274940446e+01  9.5472536836e+01  4.8000000000e+00 0. 9.
       -3     1     5     0     0   104 -5.8721336651e+01 -1.4946183520e+01 -1.6957188185e+02  1.8007347637e+02  5.0000000000e-01 0. 9.
        4     1     5     0   104     0 -2.7957837469e+01 -5.0800352678e+01 -4.5876858557e+01  7.3954395807e+01  1.5000000000e+00 0. 9.
       15     1     7     0     0     0  1.4166289858e+01 -2.3810628410e+01 -2.0691827033e+01  3.4625692612e+01  1.7768200000e+00  4.913337e-03 9.
      -16     1     7     0     0     0  1.2507574111e+02  2.6052515400e+01 -3.4127413849e+00  1.2780579555e+02  0.0000000000e+00 0. 9.
#pdf   21   21  1.698590e-02  7.874590e-02  2.291305e+02  5.295067e+00  1.104993e+00
</event>
<event>
    12  9999  1.000000e+00  2.298364e+02  7.900297e-03  1.039809e-01
       21    -1     0     0   101   102  0.0000000000e+00  0.0000000000e+00  8.2312093359e+02  8.2312093359e+02  0.0000000000e+00 0. 9.
       21    -1     0     0   102   103  0.0000000000e+00  0.0000000000e+00 -1.0345232088e+02  1.0345232088e+02  0.0000000000e+00 0. 9.
        6     2     1     2   101     0 -2.1477454730e+01 -1.5241675663e+02  6.4519346767e+02  6.8487384328e+02  1.7054448606e+02  6.476998e-14 9.
       -6     2     1     2     0   103  2.1477454730e+01  1.5241675663e+02  7.4475145048e+01  2.4169941119e+02  1.7082127905e+02  1.605479e-13 9.
       24     2     3     0     0     0  7.5313090944e+00 -1.6826390449e+02  4.5457861028e+02  4.9135458240e+02  8.0113360637e+01  1.897929e-14 9.
        5     1     3     0   101     0 -2.9008763824e+01  1.5847147858e+01  1.9061485739e+02  1.9351926088e+02  4.8000000000e+00 0. 9.
      -24     2     4     0     0     0  9.9963244872e+00  9.0689271921e+01  1.1424123985e+02  1.6722471068e+02  8.1170021772e+01  2.303048e-15 9.
       -5     1     4     0     0   103  1.1481130243e+01  6.1727484710e+01 -3.9766094805e+01  7.4474700511e+01  4.8000000000e+00 0. 9.
       -3     1     5     0     0   104 -1.8858955433e+01 -4.7648706079e+01  2.2408409609e+02  2.2986950975e+02  5.0000000000e-01 0. 9.
        4     1     5     0   104     0  2.6390264527e+01 -1.2061519841e+02  2.3049451419e+02  2.6148507265e+02  1.5000000000e+00 0. 9.
        1     1     7     0   105     0  4.4164624395e+00  2.2864428249e+01 -1.0172557464e+01  2.5414111139e+01  3.3000000000e-01 0. 9.
       -2     1     7     0     0   105  5.5798620476e+00  6.7824843672e+01  1.2441379732e+02  1.4181059954e+02  3.3000000000e-01 0. 9.
#pdf   21   21  1.266340e-01  1.591574e-02  2.297337e+02  5.723023e-01  5.593157e+00
</event>
<event>
    12  9999  1.000000e+00  2.745232e+02  7.916409e-03  1.018235e-01
       21    -1     0     0   101   102  0.0000000000e+00  0.0000000000e+00  7.2630193141e+02  7.2630193141e+02  0.0000000000e+00 0. 9.
       21    -1     0     0   102   103  0.0000000000e+00  0.0000000000e+00 -4.5386382602e+02  4.5386382602e+02  0.0000000000e+00 0. 9.
        6     2     1     2   101     0  2.1414020096e+02 -1.0443279651e+01  6.5446763139e+02  7.0967551148e+02  1.7130780281e+02  1.985880e-13 9.
       -6     2     1     2     0   103 -2.1414020096e+02  1.0443279651e+01 -3.8202952600e+02  4.7049024596e+02  1.7160834784e+02  1.286696e-13 9.
       24     2     3     0     0     0  2.3084090562e+02 -7.4872428358e+00  6.4506525589e+02  6.8969811537e+02  7.8934931933e+01  4.031825e-14 9.
        5     1     3     0   101     0 -1.6700704668e+01 -2.9560368153e+00  9.4023754953e+00  1.9977396102e+01  4.8000000000e+00 0. 9.
      -24     2     4     0     0     0 -6.3974359700e+01  5.3850574379e+01 -1.4344152869e+02  1.8521626260e+02  8.2079161305e+01  2.104603e-13 9.
       -5     1     4     0     0   103 -1.5016584126e+02 -4.3407294728e+01 -2.3858799731e+02  2.8527398335e+02  4.8000000000e+00 0. 9.
       -1     1     5     0     0   104  1.7274633673e+02  2.7666975139e+01  4.3224188076e+02  4.6630452577e+02  3.3000000000e-01 0. 9.
        2     1     5     0   104     0  5.8094568899e+01 -3.5154217975e+01  2.1282337513e+02  2.2339358961e+02  3.3000000000e-01 0. 9.
        3     1     7     0   105     0 -2.0393615912e+01  5.3352976380e+01 -1.2582460445e+02  1.3818292493e+02  5.0000000000e-01 0. 9.
       -4     1     7     0     0   105 -4.3580743788e+01  4.9759799913e-01 -1.7616924244e+01  4.7033337674e+01  1.5000000000e+00 0. 9.
#pdf   21   21  1.117388e-01  6.982520e-02  2.744293e+02  6.753010e-01  1.263524e+00
</event>
<event>
    12  9999  1.000000e+00  2.304514e+02  7.900539e-03  1.039478e-01
       21    -1     0     0   101   102  0.0000000000e+00  0.0000000000e+00  4.9970038575e+02  4.9970038575e+02  0.0000000000e+00 0. 9.
       21    -1     0     0   103   101  0.0000000000e+00  0.0000000000e+00 -1.0629619354e+02  1.0629619354e+02  0.0000000000e+00 0. 9.
        6     2     1     2   103     0 -3.1104416553e+00  1.5501906014e+02  1.9278992529e+02  3.0036093264e+02  1.7031779328e+02  1.915662e-14 9.
       -6     2     1     2     0   102  3.1104416553e+00 -1.5501906014e+02  2.0061426692e+02  3.0563564665e+02  1.7066481933e+02  2.136670e-15 9.
       24     2     3     0     0     0 -5.7133011478e+01  1.4583182324e+02  1.5171454286e+02  2.3170912703e+02  7.8362716657e+01  2.697935e-14 9.
        5     1     3     0   103     0  5.4022569822e+01  9.1872369017e+00  4.1075382427e+01  6.8651805611e+01  4.8000000000e+00 0. 9.
      -24     2     4     0     0     0  4.7540446938e+01 -1.5857556695e+02  1.7944984142e+02  2.5606098562e+02  7.7192475276e+01  4.177214e-13 9.
       -5     1     4     0     0   102 -4.4430005283e+01  3.5565068120e+00  2.1164425499e+01  4.9574661036e+01  4.8000000000e+00 0. 9.
       -1     1     5     0     0   104 -6.0257794250e+01  4.9049879904e+01  5.8052503631e+01  9.6990177670e+01  3.3000000000e-01 0. 9.
        2     1     5     0   104     0  3.1247827723e+00  9.6781943336e+01  9.3662039233e+01  1.3471894936e+02  3.3000000000e-01 0. 9.
        3     1     7     0   105     0  3.2787374886e+01 -1.5876076596e+02  1.4100528577e+02  2.1485514510e+02  5.0000000000e-01 0. 9.
       -4     1     7     0     0   105  1.4753072052e+01  1.8519900697e-01  3.8444555648e+01  4.1205840516e+01  1.5000000000e+00 0. 9.
#pdf   21   21  7.687698e-02  1.635326e-02  2.303231e+02  1.138385e+00  5.467100e+00
</event>
<event>
    12  9999  1.000000e+00  1.859167e+02  7.881151e-03  1.066806e-01
       21    -1     0     0   101   102  0.0000000000e+00  0.0000000000e+00  5.4327217889e+02  5.4327217889e+02  0.0000000000e+00 0. 9.
       21    -1     0     0   102   103  0.0000000000e+00  0.0000000000e+00 -9.9217107919e+01  9.9217107919e+01  0.0000000000e+00 0. 9.
        6     2     1     2   101     0 -4.1857373347e+01 -5.5391562556e+01  4.1605366958e+02  4.5659052817e+02  1.7479699523e+02  2.629673e-14 9.
       -6     2     1     2     0   103  4.1857373347e+01  5.5391562556e+01  2.8001401387e+01  1.8589875863e+02  1.7015876432e+02  2.045598e-13 9.
       24     2     3     0     0     0 -2.4825693864e+01  3.0342867551e+01  1.4569384441e+02  1.7241110303e+02  8.3437925789e+01  1.926140e-13 9.
        5     1     3     0   101     0 -1.7031679483e+01 -8.5734430107e+01  2.7035982517e+02  2.8417942515e+02  4.8000000000e+00 0. 9.
      -24     2     4     0     0     0  2.5914302052e+01  6.8121769614e+01 -3.2304571404e+01  1.2205449461e+02  9.2420710748e+01  1.925947e-13 9.
       -5     1     4     0     0   103  1.5943071295e+01 -1.2730207059e+01  6.0305972791e+01  6.3844264021e+01  4.8000000000e+00 0. 9.
       -1     1     5     0     0   104  2.9928371118e+01  1.4123484337e+00  4.1176264006e+01  5.0924412057e+01  3.3000000000e-01 0. 9.
        2     1     5     0   104     0 -5.4754064983e+01  2.8930519117e+01  1.0451758041e+02  1.2148669097e+02  3.3000000000e-01 0. 9.
       11     1     7     0     0     0  6.0309889810e+01  5.1875483004e+01 -1.9358982274e+01  8.1872576244e+01  5.1100000000e-04 0. 9.
      -12     1     7     0     0     0 -3.4395587758e+01  1.6246286610e+01 -1.2945589130e+01  4.0181918368e+01  0.0000000000e+00 0. 9.
#pdf   21   21  8.358034e-02  1.526417e-02  1.837778e+02  1.045289e+00  5.801801e+00
</event>
<event>
    12  9999  1.000000e+00  2.247598e+02  7.898276e-03  1.042587e-01
       21    -1     0     0   101   102  0.0000000000e+00  0.0000000000e+00  4.1631775093e+02  4.1631775093e+02  0.0000000000e+00 0. 9.
       21    -1     0     0   102   103  0.0000000000e+00  0.0000000000e+00 -1.7952355600e+02  1.7952355600e+02  0.0000000000e+00 0. 9.
        6     2     1     2   101     0 -4.6138408967e+01 -1.3863411468e+02  2.8815085281e+02  3.6570569801e+02  1.7135219010e+02  7.723447e-14 9.
       -6     2     1     2     0   103  4.6138408967e+01  1.3863411468e+02 -5.1356657872e+01  2.3013560891e+02  1.7022550234e+02  3.357794e-13 9.
       24     2     3     0     0     0 -8.3495020247e+01 -1.3975054544e+02  2.0358858209e+02  2.7312826852e+02  8.1542056312e+01  4.014192e-15 9.
        5     1     3     0   101     0  3.7356611279e+01  1.1164307601e+00  8.4562270715e+01  9.2577429498e+01  4.8000000000e+00 0. 9.
      -24     2     4     0     0     0  7.8922103429e+01  4.9914240741e+01 -8.3563721928e-01  1.2279782348e+02  7.9740060971e+01  3.532673e-14 9.
       -5     1     4     0     0   103 -3.2783694462e+01  8.8719873936e+01 -5.0521020653e+01  1.0733778543e+02  4.8000000000e+00 0. 9.
       -3     1     5     0     0   104 -5.1322929812e+01 -1.3672359207e+02  1.8542159085e+02  2.3602711732e+02  5.0000000000e-01 0. 9.
        4     1     5     0   104     0 -3.2172090435e+01 -3.0269533644e+00  1.8166991240e+01  3.7101151200e+01  1.5000000000e+00 0. 9.
        3     1     7     0   105     0  2.4639707564e+00 -1.3160633538e+01  1.7445836721e+01  2.1997287239e+01  5.0000000000e-01 0. 9.
       -4     1     7     0     0   105  7.6458132673e+01  6.3074874279e+01 -1.8281473940e+01  1.0080053624e+02  1.5000000000e+00 0. 9.
#pdf   21   21  6.404888e-02  2.761901e-02  2.243321e+02  1.424468e+00  3.436979e+00
</event>
<event>
    12  9999  1.000000e+00  2.270881e+02  7.899208e-03  1.041303e-01
       21    -1     0     0   101   102  0.0000000000e+00  0.0000000000e+00  5.0522760049e+02  5.0522760049e+02  0.0000000000e+00 0. 9.
       21    -1     0     0   102   103  0.0000000000e+00  0.0000000000e+00 -1.1157731418e+02  1.1157731418e+02  0.0000000000e+00 0. 9.
        6     2     1     2   101     0  1.5409728763e+01 -1.5074862777e+02  2.8547055994e+02  3.6372731096e+02  1.6685774669e+02  1.149454e-15 9.
       -6     2     1     2     0   103 -1.5409728763e+01  1.5074862777e+02  1.0817972638e+02  2.5307760371e+02  1.7141415282e+02  2.356813e-14 9.
       24     2     3     0     0     0 -2.4097686242e+00 -1.7353549086e+01  1.6000066532e+02  1.7966885297e+02  7.9835651004e+01  7.955189e-14 9.
        5     1     3     0   101     0  1.7819497387e+01 -1.3339507869e+02  1.2546989461e+02  1.8405845799e+02  4.8000000000e+00 0. 9.
      -24     2     4     0     0     0 -2.4488902524e+01  1.6922778839e+02  5.5127827121e+01  1.9596845569e+02  7.8273926647e+01  3.198445e-14 9.
       -5     1     4     0     0   103  9.0791737613e+00 -1.8479160615e+01  5.3051899257e+01  5.7109148024e+01  4.8000000000e+00 0. 9.
      -13     1     5     0     0     0 -3.8886564538e+00 -3.6517078841e+01  1.5570109537e+02  1.5997331328e+02  1.0566000000e-01  1.046001e+05 9.
       14     1     5     0     0     0  1.4788878296e+00  1.9163529755e+01  4.2995699499e+00  1.9695539689e+01  0.0000000000e+00 0. 9.
        3     1     7     0   104     0  2.6112164021e+01  3.4904742567e+01  4.8078952442e+00  4.3858317572e+01  5.0000000000e-01 0. 9.
       -4     1     7     0     0   104 -5.0601066546e+01  1.3432304582e+02  5.0319931877e+01  1.5211013812e+02  1.5000000000e+00 0. 9.
#pdf   21   21  7.772732e-02  1.716574e-02  2.253977e+02  1.124947e+00  5.249324e+00
</event>
<event>
    12  9999  1.000000e+00  3.192256e+02  7.930141e-03  1.000616e-01
       21    -1     0     0   101   102  0.0000000000e+00  0.0000000000e+00  1.4534410188e+02  1.4534410188e+02  0.0000000000e+00 0. 9.
       21    -1     0     0   102   103  0.0000000000e+00  0.0000000000e+00 -7.0389719961e+02  7.0389719961e+02  0.0000000000e+00 0. 9.
        6     2     1     2   101     0 -2.6374969854e+02  6.2416517535e+01 -2.5222046529e+02  4.0644867452e+02  1.6770699678e+02  6.259361e-13 9.
       -6     2     1     2     0   103  2.6374969854e+02 -6.2416517535e+01 -3.0633263245e+02  4.4279262696e+02  1.6960514040e+02  1.316143e-13 9.
       24     2     3     0     0     0 -9.5852809610e+01  1.3483401450e+01 -8.9656611926e+01  1.6763104204e+02  1.0340355395e+02  1.390356e-13 9.
        5     1     3     0   101     0 -1.6789688893e+02  4.8933116085e+01 -1.6256385337e+02  2.3881763248e+02  4.8000000000e+00 0. 9.
      -24     2     4     0     0     0  1.2866606997e+02  2.4092240816e+01 -1.0906482166e+02  1.8849166127e+02  8.0613754513e+01  9.280623e-14 9.
       -5     1     4     0     0   103  1.3508362857e+02 -8.6508758351e+01 -1.9726781079e+02  2.5430096569e+02  4.8000000000e+00 0. 9.
       -1     1     5     0     0   104 -4.1168998481e+01  4.8821724983e+01 -7.9087413894e+01  1.0165321049e+02  3.3000000000e-01 0. 9.
        4     1     5     0   104     0 -5.4683811129e+01 -3.5338323533e+01 -1.0569198033e+01  6.5977831556e+01  1.5000000000e+00 0. 9.
        3     1     7     0   105     0  5.0794198452e+01 -2.0826558457e+01 -1.2025777887e+01  5.6202005901e+01  5.0000000000e-01 0. 9.
       -4     1     7     0     0   105  7.7871871520e+01  4.4918799274e+01 -9.7039043774e+01  1.3228965537e+02  1.5000000000e+00 0. 9.
#pdf   21   21  2.236063e-02  1.082919e-01  3.187246e+02  4.130692e+00  6.952132e-01
</event>
<event>
    12  9999  1.000000e+00  2.021001e+02  7.888675e-03  1.056013e-01
       21    -1     0     0   101   102  0.0000000000e+00  0.0000000000e+00  2.7903607315e+01  2.7903607315e+01  0.0000000000e+00 0. 9.
       21    -1     0     0   103   101  0.0000000000e+00  0.0000000000e+00 -1.5195593278e+03  1.5195593278e+03  0.0000000000e+00 0. 9.
        6     2     1     2   103     0 -1.0646992702e+02  2.2133299223e+01 -5.9519867534e+02  6.2835847177e+02  1.6954992663e+02  3.785281e-13 9.
       -6     2     1     2     0   102  1.0646992702e+02 -2.2133299223e+01 -8.9645704518e+02  9.1910446339e+02  1.7114921111e+02  1.075534e-13 9.
       24     2     3     0     0     0 -8.8751380847e+01 -4.8264311326e+01 -3.8669816815e+02  4.0752986867e+02  7.9617016101e+01  1.177935e-13 9.
        5     1     3     0   103     0 -1.7718546170e+01  7.0397610549e+01 -2.0850050719e+02  2.2082860310e+02  4.8000000000e+00 0. 9.
      -24     2     4     0     0     0  2.4956505205e+01 -7.3790627975e+01 -4.7531628588e+02  4.8702172050e+02  7.2088145296e+01  6.608234e-14 9.
       -5     1     4     0     0   102  8.1513421812e+01  5.1657328752e+01 -4.2114075931e+02  4.3208274288e+02  4.8000000000e+00 0. 9.
       -1     1     5     0     0   104  9.6452581535e+00 -2.0266213545e+01 -1.1585968508e+02  1.1801409214e+02  3.3000000000e-01 0. 9.
        2     1     5     0   104     0 -9.8396639000e+01 -2.7998097781e+01 -2.7083848308e+02  2.8951577653e+02  3.3000000000e-01 0. 9.
        1     1     7     0   105     0 -1.7982935491e+00 -6.1416831002e+01 -4.1875783687e+02  4.2324165181e+02  3.3000000000e-01 0. 9.
       -2     1     7     0     0   105  2.6754798754e+01 -1.2373796973e+01 -5.6558449010e+01  6.3780068692e+01  3.3000000000e-01 0. 9.
#pdf   21   21  4.292863e-03  2.337784e-01  2.014272e+02  1.496917e+01  1.923026e-01
</event>
<event>
    12  9999  1.000000e+00  2.406601e+02  7.904464e-03  1.034133e-01
       21    -1     0     0   101   102  0.0000000000e+00  0.0000000000e+00  5.1758855041e+02  5.1758855041e+02  0.0000000000e+00 0. 9.
       21    -1     0     0   102   103  0.0000000000e+00  0.0000000000e+00 -1.1923337799e+02  1.1923337799e+02  0.0000000000e+00 0. 9.
        6     2     1     2   101     0 -3.4433254375e+01  1.6578955633e+02  1.2041478045e+02  2.6934810113e+02  1.7139677430e+02  9.730126e-14 9.
       -6     2     1     2     0   103  3.4433254375e+01 -1.6578955633e+02  2.7794039198e+02  3.6747382727e+02  1.7062920687e+02  1.337749e-14 9.
       24     2     3     0     0     0  1.8866212204e+00  1.3160437955e+02  1.7173321662e+01  1.5458923008e+02  7.9244148183e+01  6.035103e-15 9.
        5     1     3     0   101     0 -3.6319875595e+01  3.4185176777e+01  1.0324145878e+02  1.1475887106e+02  4.8000000000e+00 0. 9.
      -24     2     4     0     0     0  3.1923931507e+01 -1.8193163028e+01  7.7539864051e+01  1.1852723940e+02  8.1768865582e+01  1.373086e-13 9.
       -5     1     4     0     0   103  2.5093228679e+00 -1.4759639330e+02  2.0040052793e+02  2.4894658787e+02  4.8000000000e+00 0. 9.
       -3     1     5     0     0   104  3.3714897970e+01  2.5173121540e+01 -5.6967667426e-01  4.2082715273e+01  5.0000000000e-01 0. 9.
        4     1     5     0   104     0 -3.1828276750e+01  1.0643125801e+02  1.7742998336e+01  1.1250651480e+02  1.5000000000e+00 0. 9.
        1     1     7     0   105     0  5.4986927330e+00 -4.7391746949e+01  2.8289442400e+01  5.5467240350e+01  3.3000000000e-01 0. 9.
       -2     1     7     0     0   105  2.6425238774e+01  2.9198583921e+01  4.9250421650e+01  6.3059999049e+01  3.3000000000e-01 0. 9.
#pdf   21   21  7.962901e-02  1.834360e-02  2.403875e+02  1.084772e+00  4.954509e+00
</event>
<event>
    12  9999  1.000000e+00  3.052235e+02  7.926054e-03  1.005790e-01
       21    -1     0     0   101   102  0.0000000000e+00  0.0000000000e+00  2.5346152930e+02  2.5346152930e+02  0.0000000000e+00 0. 9.
       21    -1     0     0   102   103  0.0000000000e+00  0.0000000000e+00 -4.6482276038e+02  4.6482276038e+02  0.0000000000e+00 0. 9.
        6     2     1     2   101     0  1.2619795046e+02  2.1916045333e+02  5.8625692351e+01  3.1073506004e+02  1.7076908013e+02  3.100800e-13 9.
       -6     2     1     2     0   103 -1.2619795046e+02 -2.1916045333e+02 -2.6998692343e+02  4.0754922965e+02  1.7101522962e+02  5.354175e-15 9.
       24     2     3     0     0     0  5.8027918129e+00  8.0502592758e+01  5.5474573822e+01  1.2701253537e+02  8.0872838245e+01  1.016133e-13 9.
        5     1     3     0   101     0  1.2039515865e+02  1.3865786057e+02  3.1511185289e+00  1.8372252467e+02  4.8000000000e+00 0. 9.
      -24     2     4     0     0     0 -1.2320737170e+01 -1.4864757536e+02 -1.7299334466e+02  2.4210775967e+02  8.0259378094e+01  7.204884e-14 9.
       -5     1     4     0     0   103 -1.1387721329e+02 -7.0512877964e+01 -9.6993578767e+01  1.6544146997e+02  4.8000000000e+00 0. 9.
       -1     1     5     0     0   104  3.2907645816e+01  7.9661360987e+01  4.8939941438e+01  9.9116458549e+01  3.3000000000e-01 0. 9.
        2     1     5     0   104     0 -2.7104854003e+01  8.4123177178e-01  6.5346323837e+00  2.7896076817e+01  3.3000000000e-01 0. 9.
       15     1     7     0     0     0  9.1544521760e+00 -8.3034731517e+01 -4.0829705378e+01  9.2998884743e+01  1.7768200000e+00  5.284920e-04 9.
      -16     1     7     0     0     0 -2.1475189346e+01 -6.5612843846e+01 -1.3216363928e+02  1.4910887493e+02  0.0000000000e+00 0. 9.
#pdf   21   21  3.899408e-02  7.151119e-02  3.051546e+02  2.414293e+00  1.216264e+00
</event>
<event>
    12  9999  1.000000e+00  2.050935e+02  7.890002e-03  1.054134e-01
       21    -1     0     0   101   102  0.0000000000e+00  0.0000000000e+00  1.2196599104e+03  1.2196599104e+03  0.0000000000e+00 0. 9.
       21    -1     0     0   103   101  0.0000000000e+00  0.0000000000e+00 -3.6197485449e+01  3.6197485449e+01  0.0000000000e+00 0. 9.
        6     2     1     2   103     0 -9.8930408643e+01  5.4631637682e+01  4.5813621619e+02  5.0237207327e+02  1.7238638527e+02  1.354616e-13 9.
       -6     2     1     2     0   102  9.8930408643e+01 -5.4631637682e+01  7.2532620875e+02  7.5348532256e+02  1.6991227335e+02  1.897780e-13 9.
       24     2     3     0     0     0 -1.3474184609e+02  6.2707118593e+01  3.8858759803e+02  4.2358297039e+02  7.9590600278e+01  1.344172e-14 9.
        5     1     3     0   103     0  3.5811437451e+01 -8.0754809112e+00  6.9548618164e+01  7.8789102881e+01  4.8000000000e+00 0. 9.
      -24     2     4     0     0     0  6.9438889564e+01  3.2763018081e+01  3.8634446604e+02  4.0214611690e+02  8.1020232995e+01  6.855094e-14 9.
       -5     1     4     0     0   102  2.9491519079e+01 -8.7394655763e+01  3.3898174270e+02  3.5133920567e+02  4.8000000000e+00 0. 9.
       -1     1     5     0     0   104 -1.0461782939e+02  3.3398812277e+01  1.8042404533e+02  2.1121864482e+02  3.3000000000e-01 0. 9.
        2     1     5     0   104     0 -3.0124016702e+01  2.9308306316e+01  2.0816355269e+02  2.1236432556e+02  3.3000000000e-01 0. 9.
        3     1     7     0   105     0 -4.2434565248e+00  3.6012709103e+01  1.6101669212e+02  1.6505013566e+02  5.0000000000e-01 0. 9.
       -4     1     7     0     0   105  7.3682346089e+01 -3.2496910211e+00  2.2532777392e+02  2.3709598124e+02  1.5000000000e+00 0. 9.
#pdf   21   21  1.876400e-01  5.568844e-03  2.040638e+02  3.005069e-01  1.249697e+01
</event>
<event>
    12  9999  1.000000e+00  2.112267e+02  7.892663e-03  1.050390e-01
       21    -1     0     0   101   102  0.0000000000e+00  0.0000000000e+00  2.0553846209e+02  2.0553846209e+02  0.0000000000e+00 0. 9.
       21    -1     0     0   103   101  0.0000000000e+00  0.0000000000e+00 -2.2453640480e+02  2.2453640480e+02  0.0000000000e+00 0. 9.
        6     2     1     2   103     0  1.2363653378e+02 -1.8546469897e+01 -4.8691653602e+01  2.1647724670e+02  1.6988689525e+02  5.219156e-15 9.
       -6     2     1     2     0   102 -1.2363653378e+02  1.8546469897e+01  2.9693710895e+01  2.1359762019e+02  1.7062316036e+02  9.113410e-14 9.
       24     2     3     0     0     0  1.9870233633e+01  3.6677157903e-01  2.7335157301e+01  8.6368554732e+01  7.9481794870e+01  4.529359e-14 9.
        5     1     3     0   103     0  1.0376630015e+02 -1.8913241476e+01 -7.6026810904e+01  1.3010869197e+02  4.8000000000e+00 0. 9.
      -24     2     4     0     0     0 -1.5579337682e+02  2.8568684515e+01  1.6363574549e+01  1.7705668595e+02  7.7418069422e+01  4.468990e-14 9.
       -5     1     4     0     0   102  3.2156843036e+01 -1.0022214618e+01  1.3330136346e+01  3.6540934237e+01  4.8000000000e+00 0. 9.
       -1     1     5     0     0   104  1.4560234681e+01  1.1499916024e+01  5.3919655915e+01  5.7023562644e+01  3.3000000000e-01 0. 9.
        4     1     5     0   104     0  5.3099989517e+00 -1.1133144445e+01 -2.6584498614e+01  2.9344992088e+01  1.5000000000e+00 0. 9.
       13     1     7     0     0     0 -1.3234968136e+02  5.1036783419e+01  2.8300579567e+00  1.4187745349e+02  1.0566000000e-01  1.051667e+06 9.
      -14     1     7     0     0     0 -2.3443695462e+01 -2.2468098904e+01  1.3533516592e+01  3.5179232462e+01  0.0000000000e+00 0. 9.
#pdf   21   21  3.162130e-02  3.454406e-02  2.109301e+02  3.029048e+00  2.778755e+00
</event>
<event>
    12  9999  1.000000e+00  2.035703e+02  7.889329e-03  1.055086e-01
       21    -1     0     0   101   102  0.0000000000e+00  0.0000000000e+00  2.1200099936e+03  2.1200099936e+03  0.0000000000e+00 0. 9.
       21    -1     0     0   103   101  0.0000000000e+00  0.0000000000e+00 -2.3936455451e+01  2.3936455451e+01  0.0000000000e+00 0. 9.
        6     2     1     2   103     0  7.7622791261e+01 -7.7473668598e+01  5.9149573729e+02  6.2573812700e+02  1.7220200144e+02  1.268637e-14 9.
       -6     2     1     2     0   102 -7.7622791261e+01  7.7473668598e+01  1.5045778009e+03  1.5182083221e+03  1.7080598134e+02  2.815502e-13 9.
       24     2     3     0     0     0  8.7530876721e+01 -1.1386723645e+02  5.0073057218e+02  5.2733072313e+02  8.1970627231e+01  5.160212e-14 9.
        5     1     3     0   103     0 -9.9080854597e+00  3.6393567849e+01  9.0765165112e+01  9.8407403869e+01  4.8000000000e+00 0. 9.
      -24     2     4     0     0     0  4.0470021865e+00  6.5995229057e+01  1.1223300062e+03  1.1271352773e+03  8.0234295958e+01  6.520469e-15 9.
       -5     1     4     0     0   102 -8.1669793448e+01  1.1478439541e+01  3.8224779475e+02  3.9107304475e+02  4.8000000000e+00 0. 9.
      -15     1     5     0     0     0  7.0201222823e+01 -2.7194267746e+01  2.6806441720e+02  2.7844106870e+02  1.7768200000e+00  5.912404e-02 9.
       16     1     5     0     0     0  1.7329653898e+01 -8.6672968701e+01  2.3266615498e+02  2.4888965443e+02  0.0000000000e+00 0. 9.
        1     1     7     0   104     0  1.6557263343e+01  1.3120047411e+01  6.3713731030e+01  6.7125457430e+01  3.3000000000e-01 0. 9.
       -2     1     7     0     0   104 -1.2510261156e+01  5.2875181646e+01  1.0586162751e+03  1.0600098199e+03  3.3000000000e-01 0. 9.
#pdf   21   21  3.261554e-01  3.682532e-03  2.029831e+02  7.752353e-02  1.661481e+01
</event>
<event>
    12  9999  1.000000e+00  1.941882e+02  7.885073e-03  1.061149e-01
       21    -1     0     0   101   102  0.0000000000e+00  0.0000000000e+00  3.9431964877e+02  3.9431964877e+02  0.0000000000e+00 0. 9.
       21    -1     0     0   103   101  0.0000000000e+00  0.0000000000e+00 -1.2480424222e+02  1.2480424222e+02  0.0000000000e+00 0. 9.
        6     2     1     2   103     0 -3.3044082283e+01  9.0470548763e+01  8.7099002168e+00  1.9333070218e+02  1.6740390221e+02  9.350101e-14 9.
       -6     2     1     2     0   102  3.3044082283e+01 -9.0470548763e+01  2.6080550633e+02  3.2579318882e+02  1.6983774074e+02  5.183555e-13 9.
       24     2     3     0     0     0 -3.9562935865e+01 -6.1274100451e+00 -2.0249745444e+01  9.2160735415e+01  8.0503278899e+01  1.780944e-14 9.
        5     1     3     0   103     0  6.5188535821e+00  9.6597958808e+01  2.8959645661e+01  1.0116996676e+02  4.8000000000e+00 0. 9.
      -24     2     4     0     0     0 -2.0201516649e+01  6.4014020446e+00  1.4712713304e+02  1.6715813212e+02  7.6461550042e+01  1.431144e-13 9.
       -5     1     4     0     0   102  5.3245598932e+01 -9.6871950807e+01  1.1367837329e+02  1.5863505670e+02  4.8000000000e+00 0. 9.
      -11     1     5     0     0     0 -3.3903620299e+01  2.7423804933e+01 -3.4168631552e+01  5.5398699703e+01  5.1100000000e-04 0. 9.
       12     1     5     0     0     0 -5.6593155662e+00 -3.3551214979e+01  1.3918886108e+01  3.6762035712e+01  0.0000000000e+00 0. 9.
       11     1     7     0     0     0  2.3682218539e+00 -2.7108544218e+01  2.0015541227e+01  3.3780224026e+01  5.1100000000e-04 0. 9.
      -12     1     7     0     0     0 -2.2569738503e+01  3.3509946263e+01  1.2711159181e+02  1.3337790810e+02  0.0000000000e+00 0. 9.
#pdf   21   21  6.066456e-02  1.920065e-02  1.931344e+02  1.534944e+00  4.782280e+00
</event>
<event>
    12  9999  1.000000e+00  1.933708e+02  7.884693e-03  1.061695e-01
       21    -1     0     0   101   102  0.0000000000e+00  0.0000000000e+00  2.5736208198e+02  2.5736208198e+02  0.0000000000e+00 0. 9.
       21    -1     0     0   102   103  0.0000000000e+00  0.0000000000e+00 -1.5024507754e+02  1.5024507754e+02  0.0000000000e+00 0. 9.
        6     2     1     2   101     0  7.1516654998e+01  5.6929874441e+01  1.7054150606e+01  1.9584282546e+02  1.7235987261e+02  2.175549e-13 9.
       -6     2     1     2     0   103 -7.1516654998e+01 -5.6929874441e+01  9.0062853828e+01  2.1176433406e+02  1.6845525516e+02  1.057874e-13 9.
       24     2     3     0     0     0 -2.0664512698e+01 -1.5994958263e-01  2.2611940800e+01  8.7166495398e+01  8.1606681003e+01  2.073085e-14 9.
        5     1     3     0   101     0  9.2181167696e+01  5.7089824024e+01 -5.5577901945e+00  1.0867633007e+02  4.8000000000e+00 0. 9.
      -24     2     4     0     0     0 -6.2868903077e+01 -1.8892054828e+01 -9.3516142958e+00  1.0486281018e+02  8.1236368454e+01  5.829243e-14 9.
       -5     1     4     0     0   103 -8.6477519212e+00 -3.8037819614e+01  9.9414468124e+01  1.0690152387e+02  4.8000000000e+00 0. 9.
       -1     1     5     0     0   104  2.7272889730e+01 -1.6409201527e+01  2.5536740299e-01  3.1831533445e+01  3.3000000000e-01 0. 9.
        2     1     5     0   104     0 -4.7937402428e+01  1.6249251944e+01  2.2356573397e+01  5.5334961953e+01  3.3000000000e-01 0. 9.
        1     1     7     0   105     0 -4.0044105060e+01 -1.1923839705e+00  3.4151042807e+01  5.2643658255e+01  3.3000000000e-01 0. 9.
       -2     1     7     0     0   105 -2.2824798017e+01 -1.7699670857e+01 -4.3502657103e+01  5.2219151927e+01  3.3000000000e-01 0. 9.
#pdf   21   21  3.959417e-02  2.311463e-02  1.916581e+02  2.435306e+00  4.064711e+00
</event>
<event>
    12  9999  1.000000e+00  1.858892e+02  7.881137e-03  1.066825e-01
       21    -1     0     0   101   102  0.0000000000e+00  0.0000000000e+00  1.3268856567e+02  1.3268856567e+02  0.0000000000e+00 0. 9.
       21    -1     0     0   102   103  0.0000000000e+00  0.0000000000e+00 -5.5690483680e+02  5.5690483680e+02  0.0000000000e+00 0. 9.
        6     2     1     2   101     0 -6.2277006921e+01 -3.2104270696e+01  4.0022138869e+01  1.8913115865e+02  1.7105470992e+02  1.629674e-14 9.
       -6     2     1     2     0   103  6.2277006921e+01  3.2104270696e+01 -4.6423841000e+02  5.0046224381e+02  1.7330910643e+02  7.105960e-14 9.
       24     2     3     0     0     0 -5.1060405680e+01  2.4643791031e+01  6.2339904167e+01  1.2694372181e+02  9.4941894813e+01  2.864951e-14 9.
        5     1     3     0   101     0 -1.1216601241e+01 -5.6748061727e+01 -2.2317765298e+01  6.2187436843e+01  4.8000000000e+00 0. 9.
      -24     2     4     0     0     0 -1.6244078162e+01  4.8717105225e+01 -1.5948667309e+02  1.8528259945e+02  7.9097511630e+01  5.537621e-14 9.
       -5     1     4     0     0   103  7.8521085083e+01 -1.6612834529e+01 -3.0475173691e+02  3.1517964437e+02  4.8000000000e+00 0. 9.
       -1     1     5     0     0   104 -4.3171146287e+01  5.4986933074e+01  6.5023984026e+01  9.5475327070e+01  3.3000000000e-01 0. 9.
        2     1     5     0   104     0 -7.8892593926e+00 -3.0343142043e+01 -2.6840798584e+00  3.1468394739e+01  3.3000000000e-01 0. 9.
        1     1     7     0   105     0 -2.9615443773e+01 -5.1443631823e+00 -9.7752099971e+01  1.0226984370e+02  3.3000000000e-01 0. 9.
       -2     1     7     0     0   105  1.3371365611e+01  5.3861468407e+01 -6.1734573124e+01  8.3012755743e+01  3.3000000000e-01 0. 9.
#pdf   21   21  2.041363e-02  8.567767e-02  1.848481e+02  4.538597e+00  1.012044e+00
</event>
<event>
    12  9999  1.000000e+00  1.807571e+02  7.878617e-03  1.070496e-01
       21    -1     0     0   101   102  0.0000000000e+00  0.0000000000e+00  5.0259154521e+02  5.0259154521e+02  0.0000000000e+00 0. 9.
       21    -1     0     0   102   103  0.0000000000e+00  0.0000000000e+00 -1.0676224572e+02  1.0676224572e+02  0.0000000000e+00 0. 9.
        6     2     1     2   101     0 -4.1863786360e+01 -4.7745702153e+01  3.8820890381e+02  4.2807667433e+02  1.6885276850e+02  2.437043e-13 9.
       -6     2     1     2     0   103  4.1863786360e+01  4.7745702153e+01  7.6203956804e+00  1.8127711660e+02  1.6962044066e+02  8.017085e-14 9.
       24     2     3     0     0     0 -4.0616508806e+01 -8.7036124885e+01  2.0157023677e+02  2.3728274085e+02  8.0296643336e+01  4.943886e-13 9.
        5     1     3     0   101     0 -1.2472775545e+00  3.9290422731e+01  1.8663866704e+02  1.9079393349e+02  4.8000000000e+00 0. 9.
      -24     2     4     0     0     0  4.6499885206e+01  9.5359719000e+01  4.9372965627e-02  1.3260527261e+02  7.9551496239e+01  8.825375e-14 9.
       -5     1     4     0     0   103 -4.6360988457e+00 -4.7614016846e+01  7.5710227148e+00  4.8671843993e+01  4.8000000000e+00 0. 9.
       -3     1     5     0     0   104 -4.3456478069e+01 -9.1056757206e+01  2.0670371529e+02  2.3001407443e+02  5.0000000000e-01 0. 9.
        4     1     5     0   104     0  2.8399692635e+00  4.0206323213e+00 -5.1334785283e+00  7.2686664170e+00  1.5000000000e+00 0. 9.
        3     1     7     0   105     0 -1.6481168321e+00  4.5966648084e+01  3.2538981770e+01  5.6344337424e+01  5.0000000000e-01 0. 9.
       -4     1     7     0     0   105  4.8148002038e+01  4.9393070916e+01 -3.2489608805e+01  7.6260935183e+01  1.5000000000e+00 0. 9.
#pdf   21   21  7.732178e-02  1.642496e-02  1.803981e+02  1.154767e+00  5.461271e+00
</event>
<event>
    12  9999  1.000000e+00  1.836617e+02  7.880052e-03  1.068402e-01
       21    -1     0     0   101   102  0.0000000000e+00  0.0000000000e+00  1.9034989421e+02  1.9034989421e+02  0.0000000000e+00 0. 9.
       21    -1     0     0   103   101  0.0000000000e+00  0.0000000000e+00 -1.8302781844e+02  1.8302781844e+02  0.0000000000e+00 0. 9.
        6     2     1     2   103     0 -3.5634469451e+01  1.9357845511e+01 -2.8282208352e+01  1.9458172319e+02  1.8819570159e+02  3.026309e-13 9.
       -6     2     1     2     0   102  3.5634469451e+01 -1.9357845511e+01  3.5604284131e+01  1.7879598946e+02  1.7045761702e+02  4.106134e-13 9.
       24     2     3     0     0     0 -5.5244137010e+01  3.3749998105e+01  4.8314914444e+01  1.1407189560e+02  8.0542469309e+01  4.822344e-14 9.
        5     1     3     0   103     0  1.9609667559e+01 -1.4392152594e+01 -7.6597122796e+01  8.0509827590e+01  4.8000000000e+00 0. 9.
      -24     2     4     0     0     0 -1.4036340000e+01  3.5367360563e+01  5.4151035914e+01  1.0244771185e+02  7.8200575061e+01  3.062252e-14 9.
       -5     1     4     0     0   102  4.9670809451e+01 -5.4725206074e+01 -1.8546751783e+01  7.6348277603e+01  4.8000000000e+00 0. 9.
       -3     1     5     0     0   104  6.0429732632e+00  1.6870551174e+01  4.7184228124e+01  5.0475086988e+01  5.0000000000e-01 0. 9.
        4     1     5     0   104     0 -6.1287110273e+01  1.6879446931e+01  1.1306863201e+00  6.3596808614e+01  1.5000000000e+00 0. 9.
        1     1     7     0   105     0 -4.6458188386e+01  2.0015161978e+01  2.6197426365e+01  5.6968272093e+01  3.3000000000e-01 0. 9.
       -2     1     7     0     0   105  3.2421848386e+01  1.5352198585e+01  2.7953609549e+01  4.5479439761e+01  3.3000000000e-01 0. 9.
#pdf   21   21  2.928460e-02  2.815813e-02  1.752151e+02  3.281182e+00  3.403729e+00
</event>
<event>
    12  9999  1.000000e+00  2.158159e+02  7.894604e-03  1.047676e-01
        2    -1     0     0   101     0  0.0000000000e+00  0.0000000000e+00  3.9523024317e+02  3.9523024317e+02  0.0000000000e+00 0. 9.
       -2    -1     0     0     0   102  0.0000000000e+00  0.0000000000e+00 -1.8924464294e+02  1.8924464294e+02  0.0000000000e+00 0. 9.
        6     2     1     2   101     0 -5.0039841480e+01  1.2098831595e+02  2.8243183242e+02  3.5532265535e+02  1.7130175455e+02  1.599727e-13 9.
       -6     2     1     2     0   102  5.0039841480e+01 -1.2098831595e+02 -7.6446232198e+01  2.2915223076e+02  1.7182712275e+02  4.838971e-13 9.
       24     2     3     0     0     0 -1.6838572306e+01  1.0305443948e+02  9.2052114527e+01  1.6117985949e+02  8.1250232633e+01  3.012892e-13 9.
        5     1     3     0   101     0 -3.3201269174e+01  1.7933876466e+01  1.9037971789e+02  1.9414279586e+02  4.8000000000e+00 0. 9.
      -24     2     4     0     0     0  6.3948648369e+01 -3.8783224660e+01 -9.3687980595e+01  1.4387943422e+02  7.9563092819e+01  1.593419e-13 9.
       -5     1     4     0     0   102 -1.3908806888e+01 -8.2205091287e+01  1.7241748396e+01  8.5272796543e+01  4.8000000000e+00 0. 9.
       -3     1     5     0     0   103 -3.9039591166e+01  1.7158405665e+01  2.1168030073e+01  4.7611301816e+01  5.0000000000e-01 0. 9.
        4     1     5     0   103     0  2.2201018860e+01  8.5896033816e+01  7.0884084454e+01  1.1356855768e+02  1.5000000000e+00 0. 9.
        3     1     7     0   104     0 -4.4219199390e+00 -2.6019169944e+01 -6.2096798906e+01  6.7474536048e+01  5.0000000000e-01 0. 9.
       -4     1     7     0     0   104  6.8370568308e+01 -1.2764054717e+01 -3.1591181689e+01  7.6404898168e+01  1.5000000000e+00 0. 9.
#pdf    2   -2  6.080465e-02  2.911456e-02  2.156072e+02  6.126812e-01  2.526555e-01
</event>
<event>
    12  9999  1.000000e+00  1.792437e+02  7.877860e-03  1.071603e-01
       21    -1     0     0   101   102  0.0000000000e+00  0.0000000000e+00  1.0437709328e+02  1.0437709328e+02  0.0000000000e+00 0. 9.
       21    -1     0     0   103   101  0.0000000000e+00  0.0000000000e+00 -3.2104613169e+02  3.2104613169e+02  0.0000000000e+00 0. 9.
        6     2     1     2   103     0  5.7082502729e+01 -2.1602139270e+01 -6.6948192607e+01  1.9406092028e+02  1.7161735269e+02  2.659070e-14 9.
       -6     2     1     2     0   102 -5.7082502729e+01  2.1602139270e+01 -1.4972084580e+02  2.3136230469e+02  1.6549054300e+02  4.005902e-14 9.
       24     2     3     0     0     0 -3.3116709481e+01 -2.2923500618e+01 -5.0174025122e+01  1.0218025542e+02  7.9379899683e+01  3.113971e-14 9.
        5     1     3     0   103     0  9.0199212210e+01  1.3213613471e+00 -1.6774167486e+01  9.1880664854e+01  4.8000000000e+00 0. 9.
      -24     2     4     0     0     0 -4.4001306390e+00  8.4431364339e+01 -6.6298853047e+01  1.1429304003e+02  3.8978771793e+01  2.530101e-13 9.
       -5     1     4     0     0   102 -5.2682372090e+01 -6.2829225069e+01 -8.3421992755e+01  1.1706926466e+02  4.8000000000e+00 0. 9.
      -13     1     5     0     0     0  1.9189794569e+01 -2.8144568185e+01 -8.5269861154e+00  3.5115318454e+01  1.0566000000e-01  1.015127e+05 9.
       14     1     5     0     0     0 -5.2306504049e+01  5.2210675675e+00 -4.1647039006e+01  6.7064936967e+01  0.0000000000e+00 0. 9.
        1     1     7     0   104     0  1.3344305960e+01  1.0606103469e+01 -9.9544246641e+00  1.9742325160e+01  3.3000000000e-01 0. 9.
       -2     1     7     0     0   104 -1.7744436599e+01  7.3825260870e+01 -5.6344428383e+01  9.4550714871e+01  3.3000000000e-01 0. 9.
#pdf   21   21  1.605801e-02  4.939171e-02  1.763865e+02  5.565174e+00  1.940931e+00
</event>
<event>
    12  9999  1.000000e+00  2.337176e+02  7.901813e-03  1.037736e-01
       21    -1     0     0   101   102  0.0000000000e+00  0.0000000000e+00  7.5060157494e+02  7.5060157494e+02  0.0000000000e+00 0. 9.
       21    -1     0     0   102   103  0.0000000000e+00  0.0000000000e+00 -1.0973049328e+02  1.0973049328e+02  0.0000000000e+00 0. 9.
        6     2     1     2   101     0 -7.0020189522e+00 -1.5878681979e+02  5.6982131059e+02  6.1578247354e+02  1.7096621394e+02  1.794763e-14 9.
       -6     2     1     2     0   103  7.0020189522e+00  1.5878681979e+02  7.1049771064e+01  2.4454959468e+02  1.7173861500e+02  5.377057e-14 9.
       24     2     3     0     0     0 -5.3680189558e+01 -1.1079257059e+02  2.6003707989e+02  2.9880990507e+02  8.0693989898e+01  7.214201e-15 9.
        5     1     3     0   101     0  4.6678170605e+01 -4.7994249200e+01  3.0978423071e+02  3.1697256847e+02  4.8000000000e+00 0. 9.
      -24     2     4     0     0     0 -3.9900917787e+01  1.4751441852e+02  1.9690799957e+01  1.7392568642e+02  8.0683516785e+01  3.807905e-13 9.
       -5     1     4     0     0   103  4.6902936739e+01  1.1272401266e+01  5.1358971107e+01  7.0623908263e+01  4.8000000000e+00 0. 9.
       -3     1     5     0     0   104  4.0105258816e+00 -7.3940274405e+01  1.7212416082e+02  1.8737722710e+02  5.0000000000e-01 0. 9.
        4     1     5     0   104     0 -5.7690715439e+01 -3.6852296183e+01  8.7912919060e+01  1.1143267797e+02  1.5000000000e+00 0. 9.
       13     1     7     0     0     0 -1.1812885917e+01  6.4155097769e+01  4.8583920107e+01  8.1337748311e+01  1.0566000000e-01  2.186451e+05 9.
      -14     1     7     0     0     0 -2.8088031870e+01  8.3359320754e+01 -2.8893120150e+01  9.2587938107e+01  0.0000000000e+00 0. 9.
#pdf   21   21  1.154772e-01  1.688161e-02  2.334346e+02  6.555603e-01  5.321278e+00
</event>
<event>
    12  9999  1.000000e+00  2.139935e+02  7.893838e-03  1.048745e-01
       21    -1     0     0   101   102  0.0000000000e+00  0.0000000000e+00  3.0496675588e+02  3.0496675588e+02  0.0000000000e+00 0. 9.
       21    -1     0     0   103   101  0.0000000000e+00  0.0000000000e+00 -1.5294798561e+02  1.5294798561e+02  0.0000000000e+00 0. 9.
        6     2     1     2   103     0  3.3107350717e+01  1.1814400890e+02  4.6138566207e+01  2.2151275345e+02  1.7856379571e+02  3.453021e-14 9.
       -6     2     1     2     0   102 -3.3107350717e+01 -1.1814400890e+02  1.0588020406e+02  2.3640198804e+02  1.7210804404e+02  6.059792e-14 9.
       24     2     3     0     0     0  6.0482456884e+01  7.8559624779e+01 -3.0381140014e+01  1.3098858351e+02  8.0032825171e+01  3.765500e-14 9.
        5     1     3     0   103     0 -2.7375106167e+01  3.9584384126e+01  7.6519706221e+01  9.0524169946e+01  4.8000000000e+00 0. 9.
      -24     2     4     0     0     0 -5.4908701125e+01 -1.4259913342e+02  6.7662390714e+01  1.8583526724e+02  8.1283879843e+01  8.739798e-14 9.
       -5     1     4     0     0   102  2.1801350408e+01  2.4455124517e+01  3.8217813346e+01  5.0566720792e+01  4.8000000000e+00 0. 9.
       -1     1     5     0     0   104  7.0596361820e+01  7.8481279334e+01 -7.3322279954e+00  1.0581601001e+02  3.3000000000e-01 0. 9.
        2     1     5     0   104     0 -1.0113904936e+01  7.8345445075e-02 -2.3048912018e+01  2.5172573493e+01  3.3000000000e-01 0. 9.
        3     1     7     0   105     0 -7.3414252525e+01 -1.2013594130e+02  6.8730378112e+01  1.5667294515e+02  5.0000000000e-01 0. 9.
       -4     1     7     0     0   105  1.8505551400e+01 -2.2463192122e+01 -1.0679873982e+00  2.9162322096e+01  1.5000000000e+00 0. 9.
#pdf   21   21  4.691796e-02  2.353046e-02  2.113653e+02  2.028797e+00  3.989821e+00
</event>
<event>
    12  9999  1.000000e+00  1.801862e+02  7.878332e-03  1.070912e-01
       21    -1     0     0   101   102  0.0000000000e+00  0.0000000000e+00  5.1498788865e+01  5.1498788865e+01  0.0000000000e+00 0. 9.
       21    -1     0     0   103   101  0.0000000000e+00  0.0000000000e+00 -6.3896422621e+02  6.3896422621e+02  0.0000000000e+00 0. 9.
        6     2     1     2   103     0  3.1978281903e+01 -3.8683189247e+01 -3.3023070944e+02  3.7525073367e+02  1.7100231581e+02  5.956612e-14 9.
       -6     2     1     2     0   102 -3.1978281903e+01  3.8683189247e+01 -2.5723472790e+02  3.1521228141e+02  1.7512874541e+02  1.519604e-13 9.
       24     2     3     0     0     0 -1.5617473273e+01  2.7738497062e+01 -2.3061963608e+02  2.4632206246e+02  8.0472431408e+01  3.206155e-14 9.
        5     1     3     0   103     0  4.7595755176e+01 -6.6421686308e+01 -9.9611073365e+01  1.2892867121e+02  4.8000000000e+00 0. 9.
      -24     2     4     0     0     0  4.0722512064e+01  1.6141830906e+01 -1.9719907925e+02  2.1815128313e+02  8.2362757228e+01  2.593349e-14 9.
       -5     1     4     0     0   102 -7.2700793967e+01  2.2541358341e+01 -6.0035648652e+01  9.7060998286e+01  4.8000000000e+00 0. 9.
       -1     1     5     0     0   104 -2.7877325045e+01 -1.4177363445e+01 -1.6193883747e+02  1.6493161876e+02  3.3000000000e-01 0. 9.
        2     1     5     0   104     0  1.2259851772e+01  4.1915860506e+01 -6.8680798614e+01  8.1390443700e+01  3.3000000000e-01 0. 9.
        1     1     7     0   105     0  5.5805149343e+01  3.6317461059e+01 -1.2410965979e+02  1.4084207193e+02  3.3000000000e-01 0. 9.
       -2     1     7     0     0   105 -1.5082637279e+01 -2.0175630153e+01 -7.3089419460e+01  7.7309211200e+01  3.3000000000e-01 0. 9.
#pdf   21   21  7.922891e-03  9.830219e-02  1.782156e+02  9.651648e+00  8.470646e-01
</event>
<event>
    12  9999  1.000000e+00  1.806236e+02  7.878550e-03  1.070593e-01
       21    -1     0     0   101   102  0.0000000000e+00  0.0000000000e+00  6.2895237560e+01  6.2895237560e+01  0.0000000000e+00 0. 9.
       21    -1     0     0   103   101  0.0000000000e+00  0.0000000000e+00 -5.2106445326e+02  5.2106445326e+02  0.0000000000e+00 0. 9.
        6     2     1     2   103     0  2.9817999687e+01  5.0824715116e+01 -2.0864436385e+02  2.7551169728e+02  1.7000576460e+02  1.957795e-13 9.
       -6     2     1     2     0   102 -2.9817999687e+01 -5.0824715116e+01 -2.4952485185e+02  3.0844799354e+02  1.7147958554e+02  4.031214e-14 9.
       24     2     3     0     0     0  1.3249820349e+01  8.7528810532e+01 -2.0113510672e+02  2.3426701120e+02  8.1171737502e+01  6.323660e-14 9.
        5     1     3     0   103     0  1.6568179337e+01 -3.6704095416e+01 -7.5092571306e+00  4.1244686077e+01  4.8000000000e+00 0. 9.
      -24     2     4     0     0     0 -5.0773548373e+01  8.3420785376e+00 -2.1480438542e+02  2.3655644132e+02  8.4678701250e+01  5.329815e-14 9.
       -5     1     4     0     0   102  2.0955548686e+01 -5.9166793653e+01 -3.4720466426e+01  7.1891552221e+01  4.8000000000e+00 0. 9.
      -11     1     5     0     0     0 -3.1615899198e+01  3.0708476750e+01 -4.9779589173e+01  6.6487465923e+01  5.1100000000e-04 0. 9.
       12     1     5     0     0     0  4.4865719547e+01  5.6820333783e+01 -1.5135551755e+02  1.6777954528e+02  0.0000000000e+00 0. 9.
        1     1     7     0   104     0 -5.4448352858e+01 -2.6698934586e+01 -1.6290724562e+02  1.7382846663e+02  3.3000000000e-01 0. 9.
       -2     1     7     0     0   104  3.6748044856e+00  3.5041013123e+01 -5.1897139805e+01  6.2727974690e+01  3.3000000000e-01 0. 9.
#pdf   21   21  9.676190e-03  8.016376e-02  1.799284e+02  8.312849e+00  1.104107e+00
</event>
<event>
    12  9999  1.000000e+00  2.138737e+02  7.893788e-03  1.048816e-01
       21    -1     0     0   101   102  0.0000000000e+00  0.0000000000e+00  1.3820720450e+02  1.3820720450e+02  0.0000000000e+00 0. 9.
       21    -1     0     0   103   101  0.0000000000e+00  0.0000000000e+00 -5.0317609086e+02  5.0317609086e+02  0.0000000000e+00 0. 9.
        6     2     1     2   103     0 -1.0358598846e+02  7.5608165668e+01 -3.7030996463e+02  4.2782770208e+02  1.7164038290e+02  1.355020e-13 9.
       -6     2     1     2     0   102  1.0358598846e+02 -7.5608165668e+01  5.3410782635e+00  2.1355559328e+02  1.7067751047e+02  3.184751e-13 9.
       24     2     3     0     0     0 -1.9729022542e+01  2.8015984467e+01 -2.6541600950e+02  2.8526968488e+02  9.8787677861e+01  9.585456e-15 9.
        5     1     3     0   103     0 -8.3856965922e+01  4.7592181201e+01 -1.0489395513e+02  1.4255801720e+02  4.8000000000e+00 0. 9.
      -24     2     4     0     0     0  8.4173741319e+01 -3.2794243557e+01 -5.8641612778e+01  1.3401508775e+02  7.9752892478e+01  2.970534e-13 9.
       -5     1     4     0     0   102  1.9412247145e+01 -4.2813922111e+01  6.3982691041e+01  7.9540505521e+01  4.8000000000e+00 0. 9.
       -1     1     5     0     0   104 -2.6483378839e+01 -3.0324604823e+01 -1.5571844103e+02  1.6083933844e+02  3.3000000000e-01 0. 9.
        2     1     5     0   104     0  6.7543562975e+00  5.8340589290e+01 -1.0969756847e+02  1.2443034645e+02  3.3000000000e-01 0. 9.
        3     1     7     0   105     0  1.4648805839e+01  2.4867049606e+01 -2.2972860707e+01  3.6891191329e+01  5.0000000000e-01 0. 9.
       -4     1     7     0     0   105  6.9524935479e+01 -5.7661293163e+01 -3.5668752070e+01  9.7123896425e+01  1.5000000000e+00 0. 9.
#pdf   21   21  2.126265e-02  7.741171e-02  2.134888e+02  4.366345e+00  1.136227e+00
</event>
<event>
    12  9999  1.000000e+00  1.763412e+02  7.876391e-03  1.073760e-01
       21    -1     0     0   101   102  0.0000000000e+00  0.0000000000e+00  1.5336010655e+02  1.5336010655e+02  0.0000000000e+00 0. 9.
       21    -1     0     0   102   103  0.0000000000e+00  0.0000000000e+00 -2.2105877577e+02  2.2105877577e+02  0.0000000000e+00 0. 9.
        6     2     1     2   101     0 -1.5360974255e+01  3.6910540637e+01  2.0084991181e+01  1.7701233753e+02  1.7126474602e+02  9.555700e-14 9.
       -6     2     1     2     0   103  1.5360974255e+01 -3.6910540637e+01 -8.7783660403e+01  1.9740654479e+02  1.7223537775e+02  1.526581e-13 9.
       24     2     3     0     0     0  4.6598118059e+00  4.6532515105e+00  7.4585421689e+01  1.1041878303e+02  8.1153902684e+01  3.099116e-14 9.
        5     1     3     0   101     0 -2.0020786061e+01  3.2257289126e+01 -5.4500430508e+01  6.6593554507e+01  4.8000000000e+00 0. 9.
      -24     2     4     0     0     0 -3.3344542537e+01 -4.5145272619e+01 -1.9638162472e+00  9.8269650404e+01  8.0641884027e+01  1.068691e-13 9.
       -5     1     4     0     0   103  4.8705516793e+01  8.2347319818e+00 -8.5819844156e+01  9.9136894382e+01  4.8000000000e+00 0. 9.
      -11     1     5     0     0     0  2.1841620159e+01  3.2187236595e+01  6.6388037212e+01  7.6944434860e+01  5.1100000000e-04 0. 9.
       12     1     5     0     0     0 -1.7181808353e+01 -2.7533985085e+01  8.1973844771e+00  3.3474348167e+01  0.0000000000e+00 0. 9.
       15     1     7     0     0     0 -4.3391358947e+01 -3.6123047963e+01 -3.2295514141e+01  6.5067979439e+01  1.7768200000e+00  2.462932e-02 9.
      -16     1     7     0     0     0  1.0046816410e+01 -9.0222246557e+00  3.0331697893e+01  3.3201670964e+01  0.0000000000e+00 0. 9.
#pdf   21   21  2.359386e-02  3.400904e-02  1.758692e+02  3.998579e+00  2.843650e+00
</event>
<event>
    12  9999  1.000000e+00  3.144832e+02  7.928777e-03  1.002336e-01
       21    -1     0     0   101   102  0.0000000000e+00  0.0000000000e+00  1.4585558923e+02  1.4585558923e+02  0.0000000000e+00 0. 9.
       21    -1     0     0   102   103  0.0000000000e+00  0.0000000000e+00 -7.9942528513e+02  7.9942528513e+02  0.0000000000e+00 0. 9.
        6     2     1     2   101     0  2.6282620552e+02 -2.3571761406e+01 -1.4263590562e+02  3.4532235255e+02  1.7108267989e+02  1.382267e-13 9.
       -6     2     1     2     0   103 -2.6282620552e+02  2.3571761406e+01 -5.1093379028e+02  5.9995852180e+02  1.7106620820e+02  6.502022e-14 9.
       24     2     3     0     0     0  8.8584342739e+01 -3.7363922153e+01 -1.1259900232e+02  1.6790841285e+02  7.9192495379e+01  1.543534e-14 9.
        5     1     3     0   101     0  1.7424186278e+02  1.3792160747e+01 -3.0036903301e+01  1.7741393971e+02  4.8000000000e+00 0. 9.
      -24     2     4     0     0     0 -1.2675565425e+02  7.4511442644e+01 -2.3998076347e+02  2.9247091427e+02  7.9558267262e+01  7.099067e-15 9.
       -5     1     4     0     0   103 -1.3607055127e+02 -5.0939681238e+01 -2.7095302681e+02  3.0748760753e+02  4.8000000000e+00 0. 9.
       -1     1     5     0     0   104 -1.1999791863e-01  3.5744671601e+00 -5.3723278716e+01  5.3843205616e+01  3.3000000000e-01 0. 9.
        2     1     5     0   104     0  8.8704340658e+01 -4.0938389313e+01 -5.8875723606e+01  1.1406520723e+02  3.3000000000e-01 0. 9.
       11     1     7     0     0     0 -4.5129776669e+01 -1.3167534705e+01 -7.6662345136e+01  8.9928837836e+01  5.1100000000e-04 0. 9.
      -12     1     7     0     0     0 -8.1625877580e+01  8.7678977349e+01 -1.6331841833e+02  2.0254207643e+02  0.0000000000e+00 0. 9.
#pdf   21   21  2.243932e-02  1.229885e-01  3.144788e+02  4.119031e+00  5.761412e-01
</event>
<event>
    12  9999  1.000000e+00  1.828184e+02  7.879637e-03  1.069006e-01
       21    -1     0     0   101   102  0.0000000000e+00  0.0000000000e+00  8.9896722375e+02  8.9896722375e+02  0.0000000000e+00 0. 9.
       21    -1     0     0   103   101  0.0000000000e+00  0.0000000000e+00 -9.2596933071e+01  9.2596933071e+01  0.0000000000e+00 0. 9.
        6     2     1     2   103     0 -5.8285109592e+00  3.4241275749e+01  3.0398268921e+01  1.9677681091e+02  1.9128675347e+02  1.028180e-13 9.
       -6     2     1     2     0   102  5.8285109592e+00 -3.4241275749e+01  7.7597202175e+02  7.9478734591e+02  1.6836837640e+02  7.954791e-14 9.
       24     2     3     0     0     0 -5.3665073113e+01 -3.2904300722e+01 -9.0549835674e+00  1.0525378511e+02  8.3867356434e+01  2.894648e-14 9.
        5     1     3     0   103     0  4.7836562154e+01  6.7145576471e+01  3.9453252489e+01  9.1523025793e+01  4.8000000000e+00 0. 9.
      -24     2     4     0     0     0 -4.6088771078e+01  2.2675856504e+01  4.2744473601e+02  4.3781497579e+02  7.9590083553e+01  1.672223e-13 9.
       -5     1     4     0     0   102  5.1917282037e+01 -5.6917132253e+01  3.4852728574e+02  3.5697237012e+02  4.8000000000e+00 0. 9.
       -1     1     5     0     0   104 -3.4736278173e+01 -2.0663818225e+00 -4.3219762912e+01  5.5488158749e+01  3.3000000000e-01 0. 9.
        2     1     5     0   104     0 -1.8928794940e+01 -3.0837918900e+01  3.4164779344e+01  4.9765626366e+01  3.3000000000e-01 0. 9.
        1     1     7     0   105     0 -1.5356693524e+01  3.7350132665e+01  8.9875919369e+01  9.8532483114e+01  3.3000000000e-01 0. 9.
       -2     1     7     0     0   105 -3.0732077554e+01 -1.4674276161e+01  3.3756881664e+02  3.3928249268e+02  3.3000000000e-01 0. 9.
#pdf   21   21  1.383026e-01  1.424568e-02  1.719138e+02  5.183234e-01  6.137811e+00
</event>
<event>
    12  9999  1.000000e+00  1.996258e+02  7.887564e-03  1.057592e-01
       21    -1     0     0   101   102  0.0000000000e+00  0.0000000000e+00  2.8248830787e+02  2.8248830787e+02  0.0000000000e+00 0. 9.
       21    -1     0     0   102   103  0.0000000000e+00  0.0000000000e+00 -1.6788579768e+02  1.6788579768e+02  0.0000000000e+00 0. 9.
        6     2     1     2   101     0  9.0103045326e+00 -1.0250066751e+02  1.4742352680e+02  2.4858024250e+02  1.7167081372e+02  1.113321e-13 9.
       -6     2     1     2     0   103 -9.0103045326e+00  1.0250066751e+02 -3.2821016609e+01  2.0179386304e+02  1.7045812273e+02  1.695796e-13 9.
       24     2     3     0     0     0  2.0257897967e+01  9.2217669319e+00  4.3497940731e+01  9.5505168915e+01  8.2059387191e+01  1.676577e-13 9.
        5     1     3     0   101     0 -1.1247593434e+01 -1.1172243444e+02  1.0392558607e+02  1.5307507359e+02  4.8000000000e+00 0. 9.
      -24     2     4     0     0     0 -6.7272689604e+01  7.4541875506e+01 -4.2874765555e+01  1.3621705745e+02  8.1453884176e+01  2.096363e-14 9.
       -5     1     4     0     0   103  5.8262385071e+01  2.7958792000e+01  1.0053748946e+01  6.5576805596e+01  4.8000000000e+00 0. 9.
       -3     1     5     0     0   104  3.9139991802e+01 -4.9076155144e+00  5.6210026928e+01  6.8671979552e+01  5.0000000000e-01 0. 9.
        4     1     5     0   104     0 -1.8882093835e+01  1.4129382446e+01 -1.2712086197e+01  2.6833189363e+01  1.5000000000e+00 0. 9.
       11     1     7     0     0     0 -4.9954900287e+01 -1.3702074228e+00 -2.6823349791e+01  5.6717383802e+01  5.1100000000e-04 0. 9.
      -12     1     7     0     0     0 -1.7317789317e+01  7.5912082929e+01 -1.6051415764e+01  7.9499673644e+01  0.0000000000e+00 0. 9.
#pdf   21   21  4.345974e-02  2.582858e-02  1.991069e+02  2.207734e+00  3.672168e+00
</event>
<event>
    12  9999  1.000000e+00  2.609817e+02  7.911815e-03  1.024285e-01
       -2    -1     0     0     0   101  0.0000000000e+00  0.0000000000e+00  1.4028508963e+02  1.4028508963e+02  0.0000000000e+00 0. 9.
        2    -1     0     0   102     0  0.0000000000e+00  0.0000000000e+00 -4.8898294827e+02  4.8898294827e+02  0.0000000000e+00 0. 9.
       -6     2     1     2     0   101 -4.5016427477e+01  1.9157318881e+02 -2.0097289344e+02  3.2957983235e+02  1.7177309621e+02  2.094546e-13 9.
        6     2     1     2   102     0  4.5016427477e+01 -1.9157318881e+02 -1.4772496520e+02  2.9968820555e+02  1.7106603926e+02  2.284873e-14 9.
      -24     2     3     0     0     0 -6.1853865798e+00  7.6364521247e+01 -2.2626141018e+01  1.1368288722e+02  8.0882986319e+01  1.494264e-13 9.
       -5     1     3     0     0   101 -3.8831040897e+01  1.1520866757e+02 -1.7834675243e+02  2.1589694514e+02  4.8000000000e+00 0. 9.
       24     2     4     0     0     0  8.7494923306e+01 -1.8055005402e+02 -1.2773240578e+02  2.5122507997e+02  8.0899874596e+01  1.743349e-13 9.
        5     1     4     0   102     0 -4.2478495829e+01 -1.1023134793e+01 -1.9992559418e+01  4.8463125576e+01  4.8000000000e+00 0. 9.
        3     1     5     0   103     0 -3.6157047908e+01  5.8800376185e+01 -3.4198452698e+01  7.7036358428e+01  5.0000000000e-01 0. 9.
       -4     1     5     0     0   103  2.9971661328e+01  1.7564145062e+01  1.1572311680e+01  3.6646528787e+01  1.5000000000e+00 0. 9.
      -11     1     7     0     0     0  3.4192242599e+01 -1.1241428897e+02 -3.1136810862e+01  1.2155485514e+02  5.1100000000e-04 0. 9.
       12     1     7     0     0     0  5.3302680706e+01 -6.8135765055e+01 -9.6595594916e+01  1.2967022483e+02  0.0000000000e+00 0. 9.
#pdf   -2    2  2.158232e-02  7.522815e-02  2.607496e+02  3.191839e-01  5.984260e-01
</event>
<event>
    12  9999  1.000000e+00  1.831433e+02  7.879797e-03  1.068773e-01
       21    -1     0     0   101   102  0.0000000000e+00  0.0000000000e+00  6.9517665612e+01  6.9517665612e+01  0.0000000000e+00 0. 9.
       21    -1     0     0   103   101  0.0000000000e+00  0.0000000000e+00 -4.9618722247e+02  4.9618722247e+02  0.0000000000e+00 0. 9.
        6     2     1     2   103     0 -3.5444221823e+01 -5.5099349511e+01 -1.6608885393e+02  2.4707590716e+02  1.7078865688e+02  3.491342e-14 9.
       -6     2     1     2     0   102  3.5444221823e+01  5.5099349511e+01 -2.6058070293e+02  3.1862898093e+02  1.7125972548e+02  7.062146e-14 9.
       24     2     3     0     0     0  4.6138410228e+01 -2.4598684290e+01 -8.4618304303e+01  1.2771717523e+02  8.0109745083e+01  1.532408e-13 9.
        5     1     3     0   103     0 -8.1582632051e+01 -3.0500665222e+01 -8.1470549628e+01  1.1935873193e+02  4.8000000000e+00 0. 9.
      -24     2     4     0     0     0  3.5918634419e+01  3.2916681944e+01 -2.7592230698e+02  2.9123006448e+02  7.9424018513e+01  7.299617e-14 9.
       -5     1     4     0     0   102 -4.7441259530e-01  2.2182667568e+01  1.5341604052e+01  2.7398916450e+01  4.8000000000e+00 0. 9.
      -15     1     5     0     0     0  4.5952392327e+01 -1.8366059618e+01 -9.9742386005e+01  1.1135813918e+02  1.7768200000e+00  1.267004e-01 9.
       16     1     5     0     0     0  1.8601790142e-01 -6.2326246711e+00  1.5124081703e+01  1.6359036044e+01  0.0000000000e+00 0. 9.
        3     1     7     0   104     0 -1.2668651487e+01  1.1073060795e+01 -9.0956721863e+00  1.9133443453e+01  5.0000000000e-01 0. 9.
       -4     1     7     0     0   104  4.8587285905e+01  2.1843621149e+01 -2.6682663480e+02  2.7209662102e+02  1.5000000000e+00 0. 9.
#pdf   21   21  1.069503e-02  7.633650e-02  1.829235e+02  7.700943e+00  1.171885e+00
</event>
<event>
    12  9999  1.000000e+00  1.772355e+02  7.876846e-03  1.073091e-01
       -2    -1     0     0     0   101  0.0000000000e+00  0.0000000000e+00  5.6963361742e+02  5.6963361742e+02  0.0000000000e+00 0. 9.
        2    -1     0     0   102     0  0.0000000000e+00  0.0000000000e+00 -7.3110472664e+01  7.3110472664e+01  0.0000000000e+00 0. 9.
       -6     2     1     2     0   101  4.4479886276e+01  1.1170256036e+01  4.0712322514e+02  4.4386134893e+02  1.7076399422e+02  3.730651e-14 9.
        6     2     1     2   102     0 -4.4479886276e+01 -1.1170256036e+01  8.9399919620e+01  1.9888274116e+02  1.7163555634e+02  8.334742e-14 9.
      -24     2     3     0     0     0  6.4011846812e+01  5.5091836804e+01  2.0564150461e+02  2.3666934511e+02  8.1186966199e+01  1.006181e-13 9.
       -5     1     3     0     0   101 -1.9531960536e+01 -4.3921580768e+01  2.0148172053e+02  2.0719200382e+02  4.8000000000e+00 0. 9.
       24     2     4     0     0     0  6.0375307316e+00 -6.6481258546e+01  4.9390205111e+01  1.1382315220e+02  7.7846696139e+01  3.253770e-13 9.
        5     1     4     0   102     0 -5.0517417008e+01  5.5311002509e+01  4.0009714509e+01  8.5059588965e+01  4.8000000000e+00 0. 9.
        3     1     5     0   103     0  3.6883161244e+01 -9.1662151355e+00  3.2530511337e+01  5.0028704272e+01  5.0000000000e-01 0. 9.
       -4     1     5     0     0   103  2.7128685568e+01  6.4258051939e+01  1.7311099327e+02  1.8664064083e+02  1.5000000000e+00 0. 9.
      -11     1     7     0     0     0  8.1763029489e-01 -1.8566101850e+01 -2.1298273953e+01  2.8266325033e+01  5.1100000000e-04 0. 9.
       12     1     7     0     0     0  5.2199004367e+00 -4.7915156696e+01  7.0688479065e+01  8.5556827163e+01  0.0000000000e+00 0. 9.
#pdf   -2    2  8.763594e-02  1.124777e-02  1.768151e+02  8.355422e-02  7.513546e-01
</event>
<event>
    12  9999  1.000000e+00  2.027550e+02  7.888967e-03  1.055599e-01
       21    -1     0     0   101   102  0.0000000000e+00  0.0000000000e+00  2.3403267192e+02  2.3403267192e+02  0.0000000000e+00 0. 9.
       21    -1     0     0   102   103  0.0000000000e+00  0.0000000000e+00 -2.3491292763e+02  2.3491292763e+02  0.0000000000e+00 0. 9.
        6     2     1     2   101     0 -8.5748096473e+01  6.3442083919e+01  1.1731271706e+02  2.3522552244e+02  1.7375597475e+02  3.166462e-13 9.
       -6     2     1     2     0   103  8.5748096473e+01 -6.3442083919e+01 -1.1819297277e+02  2.3372007712e+02  1.7110774844e+02  1.611878e-14 9.
       24     2     3     0     0     0 -4.4303792965e+00  6.7684342247e+01  1.1091188960e+02  1.5340511866e+02  8.1430244559e+01  1.546464e-13 9.
        5     1     3     0   101     0 -8.1317717176e+01 -4.2422583277e+00  6.4008274599e+00  8.1820403779e+01  4.8000000000e+00 0. 9.
      -24     2     4     0     0     0 -1.4119902949e+01 -2.0794378314e+01 -1.5224617926e+01  8.3993772815e+01  7.8685367458e+01  1.365197e-13 9.
       -5     1     4     0     0   103  9.9867999422e+01 -4.2647705605e+01 -1.0296835484e+02  1.4972630431e+02  4.8000000000e+00 0. 9.
       -1     1     5     0     0   104 -1.2676291100e+01 -1.0152253486e+01  5.4641570977e+01  5.7004971588e+01  3.3000000000e-01 0. 9.
        2     1     5     0   104     0  8.2459118038e+00  7.7836595733e+01  5.6270318624e+01  9.6400147069e+01  3.3000000000e-01 0. 9.
        3     1     7     0   105     0 -2.8992239884e+01  2.1685063903e+01 -1.4362607651e+01  3.8952874971e+01  5.0000000000e-01 0. 9.
       -4     1     7     0     0   105  1.4872336935e+01 -4.2479442216e+01 -8.6201027471e-01  4.5040897844e+01  1.5000000000e+00 0. 9.
#pdf   21   21  3.600503e-02  3.614045e-02  2.016321e+02  2.672724e+00  2.662763e+00
</event>
<event>
    12  9999  1.000000e+00  2.237595e+02  7.897872e-03  1.043144e-01
       21    -1     0     0   101   102  0.0000000000e+00  0.0000000000e+00  4.7097192152e+01  4.7097192152e+01  0.0000000000e+00 0. 9.
       21    -1     0     0   102   103  0.0000000000e+00  0.0000000000e+00 -1.4024504836e+03  1.4024504836e+03  0.0000000000e+00 0. 9.
        6     2     1     2   101     0 -7.5921953367e+01 -1.2470300841e+02 -3.1956378166e+02  3.8971771485e+02  1.6865320456e+02  2.032683e-13 9.
       -6     2     1     2     0   103  7.5921953367e+01  1.2470300841e+02 -1.0357895098e+03  1.0598299609e+03  1.7048358903e+02  2.980429e-13 9.
       24     2     3     0     0     0  2.0621648451e+01 -3.6101161293e+01 -1.2235583543e+02  1.5289506302e+02  8.1715381661e+01  1.952509e-14 9.
        5     1     3     0   101     0 -9.6543601817e+01 -8.8601847117e+01 -1.9720794623e+02  2.3682265184e+02  4.8000000000e+00 0. 9.
      -24     2     4     0     0     0  6.3802937797e+01  1.5788160864e+02 -8.6696824785e+02  8.8728620259e+02  8.1519600713e+01  3.846735e-14 9.
       -5     1     4     0     0   103  1.2119015569e+01 -3.3178600229e+01 -1.6882126192e+02  1.7254375830e+02  4.8000000000e+00 0. 9.
       -1     1     5     0     0   104  3.0496995011e+01  1.0981120908e+00 -1.0731717022e+02  1.1157220299e+02  3.3000000000e-01 0. 9.
        2     1     5     0   104     0 -9.8753465601e+00 -3.7199273384e+01 -1.5038665208e+01  4.1322860032e+01  3.3000000000e-01 0. 9.
        1     1     7     0   105     0  3.2189578273e+01  5.5008458090e+01 -5.2306098140e+02  5.2692978525e+02  3.3000000000e-01 0. 9.
       -4     1     7     0     0   105  3.1613359525e+01  1.0287315055e+02 -3.4390726645e+02  3.6035641734e+02  1.5000000000e+00 0. 9.
#pdf   21   21  7.245722e-03  2.157616e-01  2.230670e+02  1.035940e+01  2.242960e-01
</event>
<event>
    12  9999  1.000000e+00  2.394819e+02  7.904019e-03  1.034735e-01
       21    -1     0     0   101   102  0.0000000000e+00  0.0000000000e+00  5.1864898460e+02  5.1864898460e+02  0.0000000000e+00 0. 9.
       21    -1     0     0   103   101  0.0000000000e+00  0.0000000000e+00 -2.3557094205e+02  2.3557094205e+02  0.0000000000e+00 0. 9.
        6     2     1     2   103     0  1.2201727695e+02 -1.1400651969e+02 -1.3323113213e+02  2.7380573352e+02  1.7126979515e+02  1.416495e-13 9.
       -6     2     1     2     0   102 -1.2201727695e+02  1.1400651969e+02  4.1630917468e+02  4.8041419313e+02  1.7204291798e+02  7.635621e-15 9.
       24     2     3     0     0     0  1.5606432933e+02 -9.9261994734e+01 -1.1513017897e+02  2.3224508751e+02  8.0459953229e+01  3.092537e-13 9.
        5     1     3     0   103     0 -3.4047052375e+01 -1.4744524956e+01 -1.8100953162e+01  4.1560646013e+01  4.8000000000e+00 0. 9.
      -24     2     4     0     0     0 -3.2492524191e+01 -8.5384010912e-01  1.0053333564e+02  1.3264271049e+02  8.0191295668e+01  5.021531e-14 9.
       -5     1     4     0     0   102 -8.9524752761e+01  1.1486035980e+02  3.1577583905e+02  3.4777148264e+02  4.8000000000e+00 0. 9.
       -3     1     5     0     0   104  9.5950026797e+01 -1.8999576048e+01 -3.5044055145e+01  1.0390248954e+02  5.0000000000e-01 0. 9.
        4     1     5     0   104     0  6.0114302530e+01 -8.0262418686e+01 -8.0086123827e+01  1.2834259796e+02  1.5000000000e+00 0. 9.
        3     1     7     0   105     0 -2.3727436322e+01  3.8331393425e+01  6.4344894432e+01  7.8567183962e+01  5.0000000000e-01 0. 9.
       -4     1     7     0     0   105 -8.7650878686e+00 -3.9185233534e+01  3.6188441205e+01  5.4075526528e+01  1.5000000000e+00 0. 9.
#pdf   21   21  7.979215e-02  3.624168e-02  2.392050e+02  1.082432e+00  2.633327e+00
</event>
<event>
    12  9999  1.000000e+00  3.456173e+02  7.937391e-03  9.915847e-02
       21    -1     0     0   101   102  0.0000000000e+00  0.0000000000e+00  2.7081939810e+02  2.7081939810e+02  0.0000000000e+00 0. 9.
       21    -1     0     0   102   103  0.0000000000e+00  0.0000000000e+00 -5.0591181780e+02  5.0591181780e+02  0.0000000000e+00 0. 9.
        6     2     1     2   101     0  2.6128592300e+02 -1.4611040160e+02 -2.5643983656e+02  4.2998845679e+02  1.7178504063e+02  4.359597e-14 9.
       -6     2     1     2     0   103 -2.6128592300e+02  1.4611040160e+02  2.1347416855e+01  3.4674275910e+02  1.7365553769e+02  3.486696e-13 9.
       24     2     3     0     0     0  1.9638172985e+02 -1.3154039431e+02 -2.3695838361e+02  3.6050891728e+02  1.3397292534e+02  6.766250e-14 9.
        5     1     3     0   101     0  6.4904193153e+01 -1.4570007295e+01 -1.9481452950e+01  6.9479539509e+01  4.8000000000e+00 0. 9.
      -24     2     4     0     0     0 -2.2910860296e+02  8.3193309389e+01 -3.0462123525e+01  2.5898622720e+02  8.2061234655e+01  3.644455e-15 9.
       -5     1     4     0     0   103 -3.2177320043e+01  6.2917092211e+01  5.1809540380e+01  8.7756531904e+01  4.8000000000e+00 0. 9.
       -3     1     5     0     0   104  4.9593181542e+01 -8.3446498685e+01 -2.8722912659e+01  1.0123268993e+02  5.0000000000e-01 0. 9.
        4     1     5     0   104     0  1.4678854831e+02 -4.8093895620e+01 -2.0823547095e+02  2.5927622735e+02  1.5000000000e+00 0. 9.
        3     1     7     0   105     0 -7.1151195645e+01  6.7410758502e+01 -4.4311087255e+00  9.8115175829e+01  5.0000000000e-01 0. 9.
       -4     1     7     0     0   105 -1.5795740731e+02  1.5782550888e+01 -2.6031014800e+01  1.6087105137e+02  1.5000000000e+00 0. 9.
#pdf   21   21  4.166452e-02  7.783259e-02  3.451502e+02  2.237599e+00  1.081694e+00
</event>
<event>
    12  9999  1.000000e+00  2.005484e+02  7.887980e-03  1.057000e-01
       21    -1     0     0   101   102  0.0000000000e+00  0.0000000000e+00  5.8408201980e+02  5.8408201980e+02  0.0000000000e+00 0. 9.
       21    -1     0     0   102   103  0.0000000000e+00  0.0000000000e+00 -1.9772522370e+02  1.9772522370e+02  0.0000000000e+00 0. 9.
        6     2     1     2   101     0  3.0483817489e-01 -1.0251699272e+02  5.0907482873e+02  5.4750601856e+02  1.7348150447e+02  5.845783e-14 9.
       -6     2     1     2     0   103 -3.0483817489e-01  1.0251699272e+02 -1.2271803262e+02  2.3430122494e+02  1.7125280072e+02  2.827148e-15 9.
       24     2     3     0     0     0 -6.6859877018e+01 -7.0742332855e+01  3.3956843362e+02  3.6236772982e+02  8.0801792616e+01  2.757523e-13 9.
        5     1     3     0   101     0  6.7164715193e+01 -3.1774659865e+01  1.6950639511e+02  1.8513828874e+02  4.8000000000e+00 0. 9.
      -24     2     4     0     0     0 -3.9573359177e+01  5.6354865213e+01 -1.0540006903e+01  1.0670848137e+02  8.0831223300e+01  1.038023e-14 9.
       -5     1     4     0     0   103  3.9268521002e+01  4.6162127507e+01 -1.1217802572e+02  1.2759274357e+02  4.8000000000e+00 0. 9.
      -15     1     5     0     0     0 -5.0942218297e+01 -6.8410684633e+00  2.1930134784e+02  2.2525129983e+02  1.7768200000e+00  2.199389e-01 9.
       16     1     5     0     0     0 -1.5917658721e+01 -6.3901264392e+01  1.2026708579e+02  1.3711642999e+02  0.0000000000e+00 0. 9.
        3     1     7     0   104     0 -6.8449087135e+00 -5.2381016955e+00  2.6394166012e+01  2.7770352611e+01  5.0000000000e-01 0. 9.
       -4     1     7     0     0   104 -3.2728450463e+01  6.1592966908e+01 -3.6934172916e+01  7.8938128754e+01  1.5000000000e+00 0. 9.
#pdf   21   21  8.985877e-02  3.041927e-02  1.995930e+02  9.442461e-01  3.150830e+00
</event>
<event>
    12  9999  1.000000e+00  1.757879e+02  7.876109e-03  1.074176e-01
       21    -1     0     0   101   102  0.0000000000e+00  0.0000000000e+00  9.0326627159e+01  9.0326627159e+01  0.0000000000e+00 0. 9.
       21    -1     0     0   102   103  0.0000000000e+00  0.0000000000e+00 -3.4580631696e+02  3.4580631696e+02  0.0000000000e+00 0. 9.
        6     2     1     2   101     0 -7.9192187931e+00  4.0899456390e+01 -1.0477696430e+02  2.0414414750e+02  1.7017973191e+02  2.239546e-14 9.
       -6     2     1     2     0   103  7.9192187931e+00 -4.0899456390e+01 -1.5070272551e+02  2.3198879662e+02  1.7138264417e+02  8.375927e-16 9.
       24     2     3     0     0     0  3.6041518135e+01  5.7212956642e+01 -1.8222944831e+01  1.0558799616e+02  7.9021742435e+01  1.939080e-14 9.
        5     1     3     0   101     0 -4.3960736928e+01 -1.6313500252e+01 -8.6554019464e+01  9.8556151341e+01  4.8000000000e+00 0. 9.
      -24     2     4     0     0     0 -1.3131321853e+01 -8.6868131848e+01 -1.3432702479e+02  1.7862731277e+02  7.8393005645e+01  6.999733e-14 9.
       -5     1     4     0     0   103  2.1050540646e+01  4.5968675457e+01 -1.6375700717e+01  5.3361483851e+01  4.8000000000e+00 0. 9.
       -3     1     5     0     0   104 -8.1950637588e-01  1.7983696235e+01 -4.2769460867e+01  4.6406483425e+01  5.0000000000e-01 0. 9.
        4     1     5     0   104     0  3.6861024511e+01  3.9229260407e+01  2.4546516036e+01  5.9181512735e+01  1.5000000000e+00 0. 9.
       15     1     7     0     0     0 -3.7291689693e+01 -2.8091055808e+01 -8.9167744680e+01  1.0066688292e+02  1.7768200000e+00  1.660201e-03 9.
      -16     1     7     0     0     0  2.4160367840e+01 -5.8777076040e+01 -4.5159280110e+01  7.7960429847e+01  0.0000000000e+00 0. 9.
#pdf   21   21  1.389640e-02  5.320097e-02  1.752045e+02  6.262349e+00  1.790938e+00
</event>
<event>
    12  9999  1.000000e+00  1.841520e+02  7.880292e-03  1.068053e-01
       21    -1     0     0   101   102  0.0000000000e+00  0.0000000000e+00  6.0742560696e+02  6.0742560696e+02  0.0000000000e+00 0. 9.
       21    -1     0     0   103   101  0.0000000000e+00  0.0000000000e+00 -1.6100440376e+02  1.6100440376e+02  0.0000000000e+00 0. 9.
        6     2     1     2   103     0  6.7035630774e+01  1.8641781616e+01 -8.7216390750e+01  2.0399625540e+02  1.7078197090e+02  1.189788e-13 9.
       -6     2     1     2     0   102 -6.7035630774e+01 -1.8641781616e+01  5.3363759395e+02  5.6443375533e+02  1.7022071162e+02  4.190891e-13 9.
       24     2     3     0     0     0  1.1120769646e+02  1.5135121262e+01 -6.7838971450e+01  1.5539592173e+02  8.3363917830e+01  1.391757e-13 9.
        5     1     3     0   103     0 -4.4172065684e+01  3.5066603541e+00 -1.9377419300e+01  4.8600333665e+01  4.8000000000e+00 0. 9.
      -24     2     4     0     0     0 -7.2499155809e+01 -6.2584425341e+01  2.7889062635e+02  3.0582234115e+02  8.1082581313e+01  8.120880e-14 9.
       -5     1     4     0     0   102  5.4635250342e+00  4.3942643725e+01  2.5474696761e+02  2.5861141419e+02  4.8000000000e+00 0. 9.
       -3     1     5     0     0   104  6.9424759420e+01 -3.0680678994e+01 -4.9868463205e+01  9.0819683475e+01  5.0000000000e-01 0. 9.
        4     1     5     0   104     0  4.1782937038e+01  4.5815800256e+01 -1.7970508245e+01  6.4576238256e+01  1.5000000000e+00 0. 9.
       15     1     7     0     0     0 -4.1423770284e+01 -4.5158155083e+01  6.6430121691e+01  9.0395275719e+01  1.7768200000e+00  2.640823e-02 9.
      -16     1     7     0     0     0 -3.1075385525e+01 -1.7426270258e+01  2.1246050465e+02  2.1542706543e+02  0.0000000000e+00 0. 9.
#pdf   21   21  9.345009e-02  2.476991e-02  1.838923e+02  9.037584e-01  3.823435e+00
</event>
<event>
    12  9999  1.000000e+00  2.910751e+02  7.921732e-03  1.011324e-01
       21    -1     0     0   101   102  0.0000000000e+00  0.0000000000e+00  1.1837047829e+03  1.1837047829e+03  0.0000000000e+00 0. 9.
       21    -1     0     0   103   101  0.0000000000e+00  0.0000000000e+00 -7.1616239036e+01  7.1616239036e+01  0.0000000000e+00 0. 9.
        6     2     1     2   103     0 -8.0542462302e+01  2.1957704958e+02  5.4253417128e+02  6.1601079764e+02  1.7442708179e+02  2.350352e-13 9.
       -6     2     1     2     0   102  8.0542462302e+01 -2.1957704958e+02  5.6955437254e+02  6.3931022426e+02  1.7211685166e+02  1.308398e-14 9.
       24     2     3     0     0     0 -1.9013674752e+01  3.7485158115e+01  5.4338344817e+01  9.1319027535e+01  6.0165207272e+01  1.796655e-13 9.
        5     1     3     0   103     0 -6.1528787550e+01  1.8209189146e+02  4.8819582647e+02  5.2469177010e+02  4.8000000000e+00 0. 9.
      -24     2     4     0     0     0  7.3367195256e+01 -1.9708616992e+02  5.7221623650e+02  6.1507286375e+02  8.1593521121e+01  6.580070e-14 9.
       -5     1     4     0     0   102  7.1752670459e+00 -2.2490879654e+01 -2.6618639603e+00  2.4237360511e+01  4.8000000000e+00 0. 9.
       -1     1     5     0     0   104 -3.8761760359e+01  2.5049917263e+01  2.1206068299e+01  5.0791521475e+01  3.3000000000e-01 0. 9.
        2     1     5     0   104     0  1.9748085608e+01  1.2435240851e+01  3.3132276518e+01  4.0527506060e+01  3.3000000000e-01 0. 9.
        3     1     7     0   105     0  8.3335982789e+01 -1.1310090216e+02  3.7661426134e+02  4.0196424211e+02  5.0000000000e-01 0. 9.
       -4     1     7     0     0   105 -9.9687875326e+00 -8.3985267764e+01  1.9560197516e+02  2.1310862163e+02  1.5000000000e+00 0. 9.
#pdf   21   21  1.821084e-01  1.101788e-02  2.903883e+02  3.002104e-01  7.540486e+00
</event>
<event>
    12  9999  1.000000e+00  1.928874e+02  7.884467e-03  1.062018e-01
       21    -1     0     0   101   102  0.0000000000e+00  0.0000000000e+00  7.4733490117e+01  7.4733490117e+01  0.0000000000e+00 0. 9.
       21    -1     0     0   102   103  0.0000000000e+00  0.0000000000e+00 -6.2454661416e+02  6.2454661416e+02  0.0000000000e+00 0. 9.
        6     2     1     2   101     0  6.9945228274e+01  5.4699074505e+01 -1.1712731593e+02  2.2544090274e+02  1.7093995666e+02  8.798597e-14 9.
       -6     2     1     2     0   103 -6.9945228274e+01 -5.4699074505e+01 -4.3268580811e+02  4.7383920154e+02  1.7152917145e+02  1.127956e-13 9.
       24     2     3     0     0     0  3.8836168308e+00 -2.8996432154e+01 -6.0072250243e+01  1.0441448058e+02  8.0236107503e+01  1.364625e-13 9.
        5     1     3     0   101     0  6.6061611444e+01  8.3695506659e+01 -5.7055065684e+01  1.2102642216e+02  4.8000000000e+00 0. 9.
      -24     2     4     0     0     0 -4.1465089604e+00  2.7914959574e+01 -2.2641135605e+02  2.4204890911e+02  8.0803055306e+01  9.548182e-14 9.
       -5     1     4     0     0   103 -6.5798719314e+01 -8.2614034079e+01 -2.0627445206e+02  2.3179029243e+02  4.8000000000e+00 0. 9.
       -1     1     5     0     0   104 -2.9029202392e+01 -4.2678661533e+00 -5.5774122992e+01  6.3021987977e+01  3.3000000000e-01 0. 9.
        2     1     5     0   104     0  3.2912819223e+01 -2.4728566001e+01 -4.2981272512e+00  4.1392492599e+01  3.3000000000e-01 0. 9.
        1     1     7     0   105     0  9.1997000002e+00 -3.9536230999e+00 -1.9522236356e+02  1.9547927192e+02  3.3000000000e-01 0. 9.
       -4     1     7     0     0   105 -1.3346208961e+01  3.1868582674e+01 -3.1188992489e+01  4.6569637187e+01  1.5000000000e+00 0. 9.
#pdf   21   21  1.149746e-02  9.608409e-02  1.926260e+02  7.283007e+00  8.667514e-01
</event>
<event>
    12  9999  1.000000e+00  1.762934e+02  7.876367e-03  1.073796e-01
       21    -1     0     0   101   102  0.0000000000e+00  0.0000000000e+00  2.1099898003e+02  2.1099898003e+02  0.0000000000e+00 0. 9.
       21    -1     0     0   102   103  0.0000000000e+00  0.0000000000e+00 -1.8874156233e+02  1.8874156233e+02  0.0000000000e+00 0. 9.
        6     2     1     2   101     0  3.2079012872e+00  1.3721544325e+01  1.0487712411e+02  2.0911414959e+02  1.8036336931e+02  1.429027e-14 9.
       -6     2     1     2     0   103 -3.2079012872e+00 -1.3721544325e+01 -8.2619706414e+01  1.9062639277e+02  1.7121283341e+02  1.233577e-13 9.
       24     2     3     0     0     0  1.8047797369e+01  6.2541858263e+00  1.4463827808e+02  1.6575549044e+02  7.8675366505e+01  2.378230e-13 9.
        5     1     3     0   101     0 -1.4839896081e+01  7.4673584984e+00 -3.9761153968e+01  4.3358659152e+01  4.8000000000e+00 0. 9.
      -24     2     4     0     0     0 -3.0771977303e+01  5.0281853120e+01 -3.1835613870e+01  1.0426507489e+02  7.9890676490e+01  6.745486e-14 9.
       -5     1     4     0     0   103  2.7564076016e+01 -6.4003397445e+01 -5.0784092544e+01  8.6361317884e+01  4.8000000000e+00 0. 9.
       -1     1     5     0     0   104 -2.8134402355e+01  6.9559271564e+00  8.8121352742e+01  9.2765355750e+01  3.3000000000e-01 0. 9.
        2     1     5     0   104     0  4.6182199723e+01 -7.0174133010e-01  5.6516925334e+01  7.2990134685e+01  3.3000000000e-01 0. 9.
        1     1     7     0   105     0 -4.0177428343e+01  1.7804204805e+01 -4.9435463448e+01  6.6145214516e+01  3.3000000000e-01 0. 9.
       -2     1     7     0     0   105  9.4054510401e+00  3.2477648315e+01  1.7599849579e+01  3.8119860369e+01  3.3000000000e-01 0. 9.
#pdf   21   21  3.246138e-02  2.903716e-02  1.717918e+02  2.977310e+00  3.309410e+00
</event>
<event>
    12  9999  1.000000e+00  1.948362e+02  7.885373e-03  1.060719e-01
       21    -1     0     0   101   102  0.0000000000e+00  0.0000000000e+00  6.7633669787e+02  6.7633669787e+02  0.0000000000e+00 0. 9.
       21    -1     0     0   102   103  0.0000000000e+00  0.0000000000e+00 -6.0780184430e+01  6.0780184430e+01  0.0000000000e+00 0. 9.
        6     2     1     2   101     0  5.1416351099e+01 -1.8569887182e+01  4.2892615713e+02  4.7839404856e+02  2.0468203525e+02  3.436002e-13 9.
       -6     2     1     2     0   103 -5.1416351099e+01  1.8569887182e+01  1.8663035631e+02  2.5872283375e+02  1.7064036139e+02  1.974288e-13 9.
       24     2     3     0     0     0  1.3014866039e+01 -7.3294018742e+01  1.1760627364e+02  1.5994073253e+02  7.8793415984e+01  2.993851e-14 9.
        5     1     3     0   101     0  3.8401485060e+01  5.4724131560e+01  3.1131988349e+02  3.1845331603e+02  4.8000000000e+00 0. 9.
      -24     2     4     0     0     0 -2.3060872146e+01  7.4598007799e+01  9.0391737872e+01  1.4370937729e+02  7.9906521975e+01  4.053302e-16 9.
       -5     1     4     0     0   103 -2.8355478952e+01 -5.6028120617e+01  9.6238618439e+01  1.1501345645e+02  4.8000000000e+00 0. 9.
       -1     1     5     0     0   104  4.1278203172e+01 -1.6106129867e+01  4.2468822796e+01  6.1375950388e+01  3.3000000000e-01 0. 9.
        2     1     5     0   104     0 -2.8263337133e+01 -5.7187888875e+01  7.5137450846e+01  9.8564782146e+01  3.3000000000e-01 0. 9.
        1     1     7     0   105     0  2.1800401589e+01  3.6366949137e+00  2.6322407615e+00  2.2260293142e+01  3.3000000000e-01 0. 9.
       -2     1     7     0     0   105 -4.4861273736e+01  7.0961312885e+01  8.7759497110e+01  1.2144908415e+02  3.3000000000e-01 0. 9.
#pdf   21   21  1.040518e-01  9.350798e-03  1.791832e+02  7.832247e-01  8.530535e+00
</event>
<event>
    12  9999  1.000000e+00  2.484576e+02  7.907353e-03  1.030236e-01
       21    -1     0     0   101   102  0.0000000000e+00  0.0000000000e+00  4.1211087715e+02  4.1211087715e+02  0.0000000000e+00 0. 9.
       21    -1     0     0   103   101  0.0000000000e+00  0.0000000000e+00 -2.0045918789e+02  2.0045918789e+02  0.0000000000e+00 0. 9.
        6     2     1     2   103     0  1.2076183318e+02  1.3045196362e+02 -4.8356900790e+01  2.5249939902e+02  1.7267432203e+02  5.748480e-13 9.
       -6     2     1     2     0   102 -1.2076183318e+02 -1.3045196362e+02  2.6000859005e+02  3.6007066602e+02  1.7448576579e+02  2.159344e-13 9.
       24     2     3     0     0     0  1.4100632765e+02  1.1174515976e+02 -7.4702480986e+01  2.1406876459e+02  8.8742380727e+01  2.770497e-13 9.
        5     1     3     0   103     0 -2.0244494477e+01  1.8706803853e+01  2.6345580196e+01  3.8430634432e+01  4.8000000000e+00 0. 9.
      -24     2     4     0     0     0 -8.5726268566e+01 -1.6267956514e+02  1.9760759011e+02  2.8143839604e+02  7.9656619700e+01  2.514966e-14 9.
       -5     1     4     0     0   102 -3.5035564611e+01  3.2227601524e+01  6.2400999942e+01  7.8632269975e+01  4.8000000000e+00 0. 9.
       -1     1     5     0     0   104  9.5207502339e+01  5.8175641108e+01 -2.8770233351e-01  1.1157537987e+02  3.3000000000e-01 0. 9.
        2     1     5     0   104     0  4.5798825315e+01  5.3569518655e+01 -7.4414778652e+01  1.0249338472e+02  3.3000000000e-01 0. 9.
        1     1     7     0   105     0 -7.9177014063e+01 -1.3749612743e+02  2.0001472360e+02  2.5530409940e+02  3.3000000000e-01 0. 9.
       -2     1     7     0     0   105 -6.5492545025e+00 -2.5183437711e+01 -2.4071334877e+00  2.6134296644e+01  3.3000000000e-01 0. 9.
#pdf   21   21  6.340167e-02  3.083988e-02  2.478257e+02  1.430531e+00  3.082316e+00
</event>
<event>
    12  9999  1.000000e+00  2.337359e+02  7.901820e-03  1.037727e-01
       21    -1     0     0   101   102  0.0000000000e+00  0.0000000000e+00  8.3242505239e+02  8.3242505239e+02  0.0000000000e+00 0. 9.
       21    -1     0     0   103   101  0.0000000000e+00  0.0000000000e+00 -2.6859533152e+02  2.6859533152e+02  0.0000000000e+00 0. 9.
        6     2     1     2   103     0  8.6099842360e+01  1.3474979665e+02 -1.9660191685e+02  3.0550958543e+02  1.7062562096e+02  7.449140e-14 9.
       -6     2     1     2     0   102 -8.6099842360e+01 -1.3474979665e+02  7.6043163772e+02  7.9551079848e+02  1.7032458511e+02  1.399358e-14 9.
       24     2     3     0     0     0  1.0234142392e+02  7.4842441141e+01 -7.3916415780e+01  1.6793250743e+02  8.1624337582e+01  4.904737e-14 9.
        5     1     3     0   103     0 -1.6241581560e+01  5.9907355507e+01 -1.2268550107e+02  1.3757707799e+02  4.8000000000e+00 0. 9.
      -24     2     4     0     0     0 -7.4052196639e+01 -8.6178318679e+01  2.8206840522e+02  3.1451313066e+02  8.0283832080e+01  3.605414e-14 9.
       -5     1     4     0     0   102 -1.2047645722e+01 -4.8571477969e+01  4.7836323250e+02  4.8099766782e+02  4.8000000000e+00 0. 9.
      -15     1     5     0     0     0  1.5392781352e+01  5.7735265573e+01 -1.5368178524e+01  6.1722253758e+01  1.7768200000e+00  3.450584e-02 9.
       16     1     5     0     0     0  8.6948642568e+01  1.7107175568e+01 -5.8548237256e+01  1.0621025368e+02  0.0000000000e+00 0. 9.
       11     1     7     0     0     0 -5.7400154321e+01 -8.2972643900e+01  2.7976257276e+02  2.9739928458e+02  5.1100000000e-04 0. 9.
      -12     1     7     0     0     0 -1.6652042318e+01 -3.2056747787e+00  2.3058324620e+00  1.7113846075e+01  0.0000000000e+00 0. 9.
#pdf   21   21  1.280654e-01  4.132236e-02  2.336261e+02  5.613804e-01  2.305989e+00
</event>
<event>
    12  9999  1.000000e+00  2.225433e+02  7.897380e-03  1.043825e-01
       21    -1     0     0   101   102  0.0000000000e+00  0.0000000000e+00  1.3721548707e+03  1.3721548707e+03  0.0000000000e+00 0. 9.
       21    -1     0     0   103   101  0.0000000000e+00  0.0000000000e+00 -4.2315825530e+01  4.2315825530e+01  0.0000000000e+00 0. 9.
        6     2     1     2   103     0 -4.3035823077e+01 -1.3606685794e+02  9.3565774191e+02  9.6171703021e+02  1.7052262106e+02  2.672043e-13 9.
       -6     2     1     2     0   102  4.3035823077e+01  1.3606685794e+02  3.9418130329e+02  4.5275366606e+02  1.7099915312e+02  1.000977e-13 9.
       24     2     3     0     0     0 -1.4788805632e+01 -1.2686368348e+01  5.3482620047e+02  5.4134861582e+02  8.1483780096e+01  1.149810e-13 9.
        5     1     3     0   103     0 -2.8247017445e+01 -1.2338048959e+02  4.0083154144e+02  4.2036841439e+02  4.8000000000e+00 0. 9.
      -24     2     4     0     0     0  5.9748574674e+01  7.5998640433e+01  3.6432677718e+02  3.8345835923e+02  7.0431719868e+01  1.157065e-13 9.
       -5     1     4     0     0   102 -1.6712751597e+01  6.0068217502e+01  2.9854526108e+01  6.9295306832e+01  4.8000000000e+00 0. 9.
       -1     1     5     0     0   104 -3.9636883898e+01 -1.5659945619e+01  1.5662150868e+02  1.6231673463e+02  3.3000000000e-01 0. 9.
        2     1     5     0   104     0  2.4848078266e+01  2.9735772715e+00  3.7820469180e+02  3.7903188118e+02  3.3000000000e-01 0. 9.
        3     1     7     0   105     0  2.9118057099e+01  7.2870452973e+01  1.7705526725e+02  1.9366667712e+02  5.0000000000e-01 0. 9.
       -4     1     7     0     0   105  3.0630517575e+01  3.1281874605e+00  1.8727150993e+02  1.8979168210e+02  1.5000000000e+00 0. 9.
#pdf   21   21  2.111007e-01  6.510127e-03  2.223606e+02  2.348536e-01  1.120179e+01
</event>
<event>
    12  9999  1.000000e+00  1.717656e+02  7.874027e-03  1.077252e-01
        2    -1     0     0   101     0  0.0000000000e+00  0.0000000000e+00  1.1201415056e+03  1.1201415056e+03  0.0000000000e+00 0. 9.
       -2    -1     0     0     0   102  0.0000000000e+00  0.0000000000e+00 -6.6090444363e+01  6.6090444363e+01  0.0000000000e+00 0. 9.
        6     2     1     2   101     0 -1.8480864762e+01  7.0632286176e-01  9.8695883894e+02  1.0017863052e+03  1.7072202636e+02  2.852476e-14 9.
       -6     2     1     2     0   102  1.8480864762e+01 -7.0632286176e-01  6.7092222272e+01  1.8444564473e+02  1.7081214335e+02  2.386582e-13 9.
       24     2     3     0     0     0  6.4216642330e+00  6.2581150994e+01  5.4477581808e+02  5.5457551124e+02  8.2557055831e+01  2.040977e-13 9.
        5     1     3     0   101     0 -2.4902528995e+01 -6.1874828132e+01  4.4218302085e+02  4.4721079396e+02  4.8000000000e+00 0. 9.
      -24     2     4     0     0     0  6.0217831626e+01 -1.9997811548e+01  8.6054702213e+01  1.3447813945e+02  8.1565056882e+01  1.254442e-14 9.
       -5     1     4     0     0   102 -4.1736966864e+01  1.9291488687e+01 -1.8962479941e+01  4.9967505283e+01  4.8000000000e+00 0. 9.
       -1     1     5     0     0   103 -2.0725790554e+01  6.0727254261e+01  4.8065326154e+02  4.8491754406e+02  3.3000000000e-01 0. 9.
        2     1     5     0   103     0  2.7147454787e+01  1.8538967324e+00  6.4122556540e+01  6.9657967180e+01  3.3000000000e-01 0. 9.
       15     1     7     0     0     0  5.9371358410e-01 -1.1178179147e+01  7.1606206159e+01  7.2497655374e+01  1.7768200000e+00  3.033902e-03 9.
      -16     1     7     0     0     0  5.9624118042e+01 -8.8196324015e+00  1.4448496054e+01  6.1980484075e+01  0.0000000000e+00 0. 9.
#pdf    2   -2  1.723295e-01  1.016776e-02  1.717209e+02  4.917818e-01  5.125844e-01
</event>
<event>
    12  9999  1.000000e+00  2.242680e+02  7.898078e-03  1.042860e-01
       21    -1     0     0   101   102  0.0000000000e+00  0.0000000000e+00  4.3146387483e+02  4.3146387483e+02  0.0000000000e+00 0. 9.
       21    -1     0     0   102   103  0.0000000000e+00  0.0000000000e+00 -1.4373349635e+02  1.4373349635e+02  0.0000000000e+00 0. 9.
        6     2     1     2   101     0 -1.4615287339e+02  1.7657078492e+01  2.6868126306e+02  3.4972494087e+02  1.6865787358e+02  3.115555e-13 9.
       -6     2     1     2     0   103  1.4615287339e+02 -1.7657078492e+01  1.9049115410e+01  2.2547243032e+02  1.6971303195e+02  1.344842e-13 9.
       24     2     3     0     0     0 -6.3752721769e+01  2.8139846234e+01  2.3789677980e+02  2.6100967828e+02  8.1700145869e+01  2.842854e-13 9.
        5     1     3     0   101     0 -8.2400151622e+01 -1.0482767742e+01  3.0784483260e+01  8.8715262590e+01  4.8000000000e+00 0. 9.
      -24     2     4     0     0     0  7.9512780238e+01 -7.2372254197e+01 -1.5050399240e+01  1.3262594752e+02  7.6178094226e+01  1.449067e-13 9.
       -5     1     4     0     0   103  6.6640093153e+01  5.4715175705e+01  3.4099514650e+01  9.2846482794e+01  4.8000000000e+00 0. 9.
       -3     1     5     0     0   104 -3.5302014449e+01 -2.4384756351e+01  1.3890684982e+02  1.4538298213e+02  5.0000000000e-01 0. 9.
        4     1     5     0   104     0 -2.8450707320e+01  5.2524602585e+01  9.8989929980e+01  1.1562669614e+02  1.5000000000e+00 0. 9.
        1     1     7     0   105     0  9.7339506476e+00 -1.2930602166e+01  2.7230914558e+01  3.1679360398e+01  3.3000000000e-01 0. 9.
       -2     1     7     0     0   105  6.9778829591e+01 -5.9441652031e+01 -4.2281313798e+01  1.0094658712e+02  3.3000000000e-01 0. 9.
#pdf   21   21  6.637906e-02  2.211285e-02  2.238703e+02  1.365572e+00  4.211909e+00
</event>
<event>
    12  9999  1.000000e+00  2.268358e+02  7.899108e-03  1.041442e-01
       21    -1     0     0   101   102  0.0000000000e+00  0.0000000000e+00  7.1549651652e+02  7.1549651652e+02  0.0000000000e+00 0. 9.
       21    -1     0     0   102   103  0.0000000000e+00  0.0000000000e+00 -1.3416741143e+02  1.3416741143e+02  0.0000000000e+00 0. 9.
        6     2     1     2   101     0  1.4722779841e+02  3.7615581232e+01  5.8049565817e+02  6.2348013478e+02  1.6929652313e+02  3.680848e-13 9.
       -6     2     1     2     0   103 -1.4722779841e+02 -3.7615581232e+01  8.3344692319e-01  2.2618379316e+02  1.6753345062e+02  6.605986e-14 9.
       24     2     3     0     0     0  1.0248262846e+02 -4.1205476320e+01  3.6405290168e+02  3.8877735214e+02  8.0079547303e+01  1.030473e-13 9.
        5     1     3     0   101     0  4.4745169954e+01  7.8821057552e+01  2.1644275648e+02  2.3470278265e+02  4.8000000000e+00 0. 9.
      -24     2     4     0     0     0 -1.4627004369e+02  8.0976451615e+00  3.1644532827e+01  1.7083960308e+02  8.2001804761e+01  3.132824e-14 9.
       -5     1     4     0     0   103 -9.5775472436e-01 -4.5713226394e+01 -3.0811085903e+01  5.5344190083e+01  4.8000000000e+00 0. 9.
       -1     1     5     0     0   104  1.1307285331e+02 -4.6536130108e+01  3.4771801701e+02  3.6859057207e+02  3.3000000000e-01 0. 9.
        2     1     5     0   104     0 -1.0590224858e+01  5.3306537883e+00  1.6334884672e+01  2.0186780070e+01  3.3000000000e-01 0. 9.
        1     1     7     0   105     0 -9.2021114451e+01 -3.4640696016e+01  1.2117847436e+01  9.9069745390e+01  3.3000000000e-01 0. 9.
       -2     1     7     0     0   105 -5.4248929236e+01  4.2738341178e+01  1.9526685390e+01  7.1769857685e+01  3.3000000000e-01 0. 9.
#pdf   21   21  1.100764e-01  2.064114e-02  2.261823e+02  7.052361e-01  4.475958e+00
</event>
<event>
    12  9999  1.000000e+00  2.336485e+02  7.901786e-03  1.037773e-01
       21    -1     0     0   101   102  0.0000000000e+00  0.0000000000e+00  1.7217742430e+02  1.7217742430e+02  0.0000000000e+00 0. 9.
       21    -1     0     0   102   103  0.0000000000e+00  0.0000000000e+00 -4.7750528527e+02  4.7750528527e+02  0.0000000000e+00 0. 9.
        6     2     1     2   101     0  1.4298626473e+02  6.8862771590e+01  3.5875540235e+01  2.3582568430e+02  1.7070309247e+02  2.227827e-13 9.
       -6     2     1     2     0   103 -1.4298626473e+02 -6.8862771590e+01 -3.4120340121e+02  4.1385702526e+02  1.7225191771e+02  3.521856e-13 9.
       24     2     3     0     0     0  6.8571726089e+00  2.8941931556e+00  1.6232601016e+01  8.3208948251e+01  8.1270133279e+01  2.158732e-15 9.
        5     1     3     0   101     0  1.3612909212e+02  6.5968578435e+01  1.9642939218e+01  1.5261673605e+02  4.8000000000e+00 0. 9.
      -24     2     4     0     0     0 -1.3426946457e+02 -1.0887178233e+02 -2.5587103409e+02  3.1908700667e+02  8.0406328351e+01  1.495563e-14 9.
       -5     1     4     0     0   103 -8.7168001608e+00  4.0009010743e+01 -8.5332367120e+01  9.4770018592e+01  4.8000000000e+00 0. 9.
       -3     1     5     0     0   104  4.8728953435e-01 -1.6834054177e+01  4.4826906053e+01  4.7888666064e+01  5.0000000000e-01 0. 9.
        2     1     5     0   104     0  6.3698830745e+00  1.9728247333e+01 -2.8594305037e+01  3.5320282187e+01  3.3000000000e-01 0. 9.
       15     1     7     0     0     0 -8.4248295244e+01 -8.9278475773e+01 -1.1458568420e+02  1.6793289612e+02  1.7768200000e+00  2.279082e-02 9.
      -16     1     7     0     0     0 -5.0021169321e+01 -1.9593306560e+01 -1.4128534989e+02  1.5115411055e+02  0.0000000000e+00 0. 9.
#pdf   21   21  2.648883e-02  7.346235e-02  2.330809e+02  3.568819e+00  1.203356e+00
</event>
<event>
    12  9999  1.000000e+00  2.169149e+02  7.895064e-03  1.047037e-01
       21    -1     0     0   101   102  0.0000000000e+00  0.0000000000e+00  5.3884558653e+02  5.3884558653e+02  0.0000000000e+00 0. 9.
       21    -1     0     0   103   101  0.0000000000e+00  0.0000000000e+00 -8.7764446706e+01  8.7764446706e+01  0.0000000000e+00 0. 9.
        6     2     1     2   103     0  5.4378684102e+01 -1.2244408730e+02  2.0359872406e+02  2.9774013614e+02  1.7101798861e+02  3.335050e-13 9.
       -6     2     1     2     0   102 -5.4378684102e+01  1.2244408730e+02  2.4748241576e+02  3.2886989710e+02  1.7017128814e+02  4.751306e-13 9.
       24     2     3     0     0     0  2.9345591806e-01 -1.3254037831e+02  1.1440236661e+02  1.9282980689e+02  8.0798483532e+01  1.756922e-14 9.
        5     1     3     0   103     0  5.4085228184e+01  1.0096291006e+01  8.9196357452e+01  1.0491032925e+02  4.8000000000e+00 0. 9.
      -24     2     4     0     0     0  2.1702919185e+01  7.5129903320e+01  7.6922539636e+01  1.3615053194e+02  8.0649681767e+01  5.678926e-14 9.
       -5     1     4     0     0   102 -7.6081603287e+01  4.7314183981e+01  1.7055987613e+02  1.9271936516e+02  4.8000000000e+00 0. 9.
      -15     1     5     0     0     0 -1.5640161329e+00  1.0516652968e+01  1.5591963775e+01  1.8955541664e+01  1.7768200000e+00  7.051124e-02 9.
       16     1     5     0     0     0  1.8574720509e+00 -1.4305703127e+02  9.8810402838e+01  1.7387426523e+02  0.0000000000e+00 0. 9.
       15     1     7     0     0     0  5.4063691583e+00  5.9455405610e+01  4.0653951772e+00  5.9865337308e+01  1.7768200000e+00  8.965117e-02 9.
      -16     1     7     0     0     0  1.6296550027e+01  1.5674497710e+01  7.2857144458e+01  7.6285194631e+01  0.0000000000e+00 0. 9.
#pdf   21   21  8.289932e-02  1.350222e-02  2.165822e+02  1.040368e+00  6.407942e+00
</event>
<event>
    12  9999  1.000000e+00  1.712495e+02  7.873757e-03  1.077653e-01
       21    -1     0     0   101   102  0.0000000000e+00  0.0000000000e+00  1.1523638042e+01  1.1523638042e+01  0.0000000000e+00 0. 9.
       21    -1     0     0   103   101  0.0000000000e+00  0.0000000000e+00 -3.2838957900e+03  3.2838957900e+03  0.0000000000e+00 0. 9.
        6     2     1     2   103     0  3.3670820938e+00 -1.0893595606e+01 -2.4168054678e+03  2.4228552733e+03  1.7073077720e+02  2.168508e-13 9.
       -6     2     1     2     0   102 -3.3670820938e+00  1.0893595606e+01 -8.5556668416e+02  8.7256415479e+02  1.7100832001e+02  1.786107e-13 9.
       24     2     3     0     0     0  3.6710196701e+01 -4.2111694859e+00 -2.2824894212e+03  2.2842181264e+03  8.0802961915e+01  1.635430e-13 9.
        5     1     3     0   103     0 -3.3343114607e+01 -6.6824261203e+00 -1.3431604666e+02  1.3863714690e+02  4.8000000000e+00 0. 9.
      -24     2     4     0     0     0 -4.0636141774e+01 -4.7734796847e+01 -5.7126184323e+02  5.7985516315e+02  7.7214052163e+01  6.376295e-14 9.
       -5     1     4     0     0   102  3.7269059680e+01  5.8628392453e+01 -2.8430484093e+02  2.9270899164e+02  4.8000000000e+00 0. 9.
      -11     1     5     0     0     0  4.7743326698e+01 -2.9458786215e+01 -1.1219796178e+03  1.1233812835e+03  5.1100000000e-04 0. 9.
       12     1     5     0     0     0 -1.1033129997e+01  2.5247616729e+01 -1.1605098033e+03  1.1608368428e+03  0.0000000000e+00 0. 9.
        3     1     7     0   104     0 -3.8498308790e+01 -1.2688855153e+00 -4.1569572530e+02  4.1747684473e+02  5.0000000000e-01 0. 9.
       -4     1     7     0     0   104 -2.1378329836e+00 -4.6465911332e+01 -1.5556611792e+02  1.6237831842e+02  1.5000000000e+00 0. 9.
#pdf   21   21  1.772867e-03  5.052147e-01  1.711111e+02  2.628930e+01  9.176718e-03
</event>
<event>
    12  9999  1.000000e+00  1.701409e+02  7.873173e-03  1.078594e-01
       21    -1     0     0   101   102  0.0000000000e+00  0.0000000000e+00  4.1489972578e+02  4.1489972578e+02  0.0000000000e+00 0. 9.
       21    -1     0     0   102   103  0.0000000000e+00  0.0000000000e+00 -1.2143654325e+02  1.2143654325e+02  0.0000000000e+00 0. 9.
        6     2     1     2   101     0  7.3003413770e+01  2.2794873408e+00  3.1288750726e+02  3.4953728217e+02  1.3763366212e+02  5.428894e-14 9.
       -6     2     1     2     0   103 -7.3003413770e+01 -2.2794873408e+00 -1.9424324726e+01  1.8679898686e+02  1.7082699616e+02  2.529847e-13 9.
       24     2     3     0     0     0  7.3628084465e+01  2.1558047556e+00  1.6668744801e+02  2.0325706193e+02  9.0016585053e+01  6.777441e-13 9.
        5     1     3     0   101     0 -6.2467069437e-01  1.2368258518e-01  1.4620005924e+02  1.4628022024e+02  4.8000000000e+00 0. 9.
      -24     2     4     0     0     0 -7.8280333271e+01  5.7017758364e+01  8.3782301260e+00  1.2092007306e+02  7.1921026008e+01  8.082165e-15 9.
       -5     1     4     0     0   103  5.2769195004e+00 -5.9297245705e+01 -2.7802554852e+01  6.5878913803e+01  4.8000000000e+00 0. 9.
       -1     1     5     0     0   104 -1.2571242871e+01  1.2740884169e-01 -2.9914888548e+00  1.2927114369e+01  3.3000000000e-01 0. 9.
        2     1     5     0   104     0  8.6199327336e+01  2.0283959139e+00  1.6967893687e+02  1.9032994756e+02  3.3000000000e-01 0. 9.
        1     1     7     0   105     0 -4.8406892832e+01  5.0386242940e+01 -2.6310808991e+01  7.4661692461e+01  3.3000000000e-01 0. 9.
       -2     1     7     0     0   105 -2.9873440439e+01  6.6315154237e+00  3.4689039117e+01  4.6258380596e+01  3.3000000000e-01 0. 9.
#pdf   21   21  6.383073e-02  1.868255e-02  1.558131e+02  1.469475e+00  4.906162e+00
</event>
<event>
    12  9999  1.000000e+00  2.114517e+02  7.892759e-03  1.050255e-01
       21    -1     0     0   101   102  0.0000000000e+00  0.0000000000e+00  8.0295923829e+02  8.0295923829e+02  0.0000000000e+00 0. 9.
       21    -1     0     0   102   103  0.0000000000e+00  0.0000000000e+00 -9.1638131746e+01  9.1638131746e+01  0.0000000000e+00 0. 9.
        6     2     1     2   101     0 -1.2366830390e+02 -2.2934957996e+01  6.3054305395e+02  6.6349492571e+02  1.6377152338e+02  3.836198e-14 9.
       -6     2     1     2     0   103  1.2366830390e+02  2.2934957996e+01  8.0778052590e+01  2.3110244432e+02  1.7624807603e+02  1.123514e-13 9.
       24     2     3     0     0     0 -5.5380440393e+01  3.9559475293e+01  4.1867958149e+02  4.3224190961e+02  8.3117574548e+01  9.812922e-14 9.
        5     1     3     0   101     0 -6.8287863510e+01 -6.2494433289e+01  2.1186347246e+02  2.3125301611e+02  4.8000000000e+00 0. 9.
      -24     2     4     0     0     0  1.5370545657e+02  4.2895020817e+01  7.2728538383e+01  1.9384027413e+02  8.2578819263e+01  1.227599e-13 9.
       -5     1     4     0     0   103 -3.0037152667e+01 -1.9960062821e+01  8.0495142068e+00  3.7262170188e+01  4.8000000000e+00 0. 9.
       -1     1     5     0     0   104 -3.7966355293e+01 -1.1583673116e+01  8.0294576486e+01  8.9570941327e+01  3.3000000000e-01 0. 9.
        2     1     5     0   104     0 -1.7414085099e+01  5.1143148410e+01  3.3838500501e+02  3.4267096828e+02  3.3000000000e-01 0. 9.
        3     1     7     0   105     0  1.7149186022e+01  2.2975846575e+01 -1.2880563232e+01  3.1434742185e+01  5.0000000000e-01 0. 9.
       -4     1     7     0     0   105  1.3655627055e+02  1.9919174242e+01  8.5609101615e+01  1.6240553195e+02  1.5000000000e+00 0. 9.
#pdf   21   21  1.235322e-01  1.409817e-02  2.064969e+02  6.020203e-01  6.188306e+00
</event>
<event>
    12  9999  1.000000e+00  1.986818e+02  7.887136e-03  1.058201e-01
       21    -1     0     0   101   102  0.0000000000e+00  0.0000000000e+00  1.3938085621e+02  1.3938085621e+02  0.0000000000e+00 0. 9.
       21    -1     0     0   103   101  0.0000000000e+00  0.0000000000e+00 -2.9405797031e+02  2.9405797031e+02  0.0000000000e+00 0. 9.
        6     2     1     2   103     0  5.6500088720e+01  8.1380902047e+01 -3.5890816503e+01  2.0234187148e+02  1.7273960461e+02  1.884481e-14 9.
       -6     2     1     2     0   102 -5.6500088720e+01 -8.1380902047e+01 -1.1878629760e+02  2.3109695504e+02  1.7169888435e+02  7.929930e-14 9.
       24     2     3     0     0     0  3.3131304548e+01  6.1100415198e+01 -9.0327916264e+01  1.3954190292e+02  8.0510037484e+01  6.655968e-14 9.
        5     1     3     0   103     0  2.3368784173e+01  2.0280486849e+01  5.4437099761e+01  6.2799968558e+01  4.8000000000e+00 0. 9.
      -24     2     4     0     0     0 -8.1038649963e+01 -4.2021576523e+00 -9.1551959427e+01  1.4551980417e+02  7.8799309739e+01  1.005441e-13 9.
       -5     1     4     0     0   102  2.4538561243e+01 -7.7178744395e+01 -2.7234338169e+01  8.5577150862e+01  4.8000000000e+00 0. 9.
       -3     1     5     0     0   104 -2.5844680934e+01  1.3741188270e+01 -3.6012883565e+01  4.6410619155e+01  5.0000000000e-01 0. 9.
        4     1     5     0   104     0  5.8975985482e+01  4.7359226927e+01 -5.4315032698e+01  9.3131283765e+01  1.5000000000e+00 0. 9.
        3     1     7     0   105     0 -2.6944644618e+00  2.5463511791e+01 -3.8866424919e+01  4.6545671737e+01  5.0000000000e-01 0. 9.
       -4     1     7     0     0   105 -7.8344185501e+01 -2.9665669443e+01 -5.2685534508e+01  9.8974132438e+01  1.5000000000e+00 0. 9.
#pdf   21   21  2.144321e-02  4.523969e-02  1.982312e+02  4.341336e+00  2.117070e+00
</event>
<event>
    12  9999  1.000000e+00  1.962271e+02  7.886015e-03  1.059801e-01
       21    -1     0     0   101   102  0.0000000000e+00  0.0000000000e+00  1.2075389864e+02  1.2075389864e+02  0.0000000000e+00 0. 9.
       21    -1     0     0   102   103  0.0000000000e+00  0.0000000000e+00 -5.0304104468e+02  5.0304104468e+02  0.0000000000e+00 0. 9.
        6     2     1     2   101     0 -8.4248513245e+01  4.6479389861e+01 -2.5267222072e+00  1.9641036748e+02  1.7120894388e+02  1.036162e-13 9.
       -6     2     1     2     0   103  8.4248513245e+01 -4.6479389861e+01 -3.7976042383e+02  4.2738457584e+02  1.7082578988e+02  1.401933e-13 9.
       24     2     3     0     0     0 -1.0363166651e+02  7.4007436131e+01  1.9085595483e+01  1.5611604731e+02  8.8268552540e+01  2.530549e-14 9.
        5     1     3     0   101     0  1.9383153266e+01 -2.7528046270e+01 -2.1612317690e+01  4.0294320169e+01  4.8000000000e+00 0. 9.
      -24     2     4     0     0     0 -1.4987244016e+01 -4.7489730586e+01 -1.4279428600e+02  1.7043176541e+02  7.8593171152e+01  2.381132e-14 9.
       -5     1     4     0     0   103  9.9235757261e+01  1.0103407243e+00 -2.3696613783e+02  2.5695281043e+02  4.8000000000e+00 0. 9.
       -3     1     5     0     0   104 -6.7118916726e+00 -1.3202650205e+01 -1.5268153841e+01  2.1277358482e+01  5.0000000000e-01 0. 9.
        4     1     5     0   104     0 -9.6919774838e+01  8.7210086336e+01  3.4353749323e+01  1.3483868883e+02  1.5000000000e+00 0. 9.
       11     1     7     0     0     0  2.7321952313e+01 -8.6096201382e+00 -2.0238810617e+01  3.5074550497e+01  5.1100000000e-04 0. 9.
      -12     1     7     0     0     0 -4.2309196329e+01 -3.8880110448e+01 -1.2255547538e+02  1.3535721491e+02  0.0000000000e+00 0. 9.
#pdf   21   21  1.857752e-02  7.739093e-02  1.960602e+02  4.918441e+00  1.145238e+00
</event>
<event>
    12  9999  1.000000e+00  2.354315e+02  7.902474e-03  1.036835e-01
       21    -1     0     0   101   102  0.0000000000e+00  0.0000000000e+00  6.0404443463e+02  6.0404443463e+02  0.0000000000e+00 0. 9.
       21    -1     0     0   103   101  0.0000000000e+00  0.0000000000e+00 -9.1784945544e+01  9.1784945544e+01  0.0000000000e+00 0. 9.
        6     2     1     2   103     0  1.4135140590e+02 -7.9615718449e+01  2.6193715287e+02  3.5234746339e+02  1.7093501786e+02  1.217215e-13 9.
       -6     2     1     2     0   102 -1.4135140590e+02  7.9615718449e+01  2.5032233621e+02  3.4348191678e+02  1.7029290230e+02  1.572718e-13 9.
       24     2     3     0     0     0  1.5926262845e+02 -5.5764342323e+01  1.5953358760e+02  2.4558028577e+02  7.9902844074e+01  1.084422e-14 9.
        5     1     3     0   103     0 -1.7911222553e+01 -2.3851376126e+01  1.0240356527e+02  1.0676717762e+02  4.8000000000e+00 0. 9.
      -24     2     4     0     0     0 -2.1471773723e+01  5.9869230882e-01  1.3901391759e+02  1.6174743825e+02  7.9849664980e+01  6.026047e-16 9.
       -5     1     4     0     0   102 -1.1987963218e+02  7.9017026140e+01  1.1130841862e+02  1.8173447853e+02  4.8000000000e+00 0. 9.
       -1     1     5     0     0   104  3.0746707085e+01 -4.2233655626e+01  2.1489441173e+01  5.6488464717e+01  3.3000000000e-01 0. 9.
        2     1     5     0   104     0  1.2851592137e+02 -1.3530686698e+01  1.3804414643e+02  1.8909182106e+02  3.3000000000e-01 0. 9.
        3     1     7     0   105     0 -6.3766836931e+00 -3.7603677760e+01  4.4050721262e+01  5.8270187229e+01  5.0000000000e-01 0. 9.
       -4     1     7     0     0   105 -1.5095090030e+01  3.8202370069e+01  9.4963196330e+01  1.0347725102e+02  1.5000000000e+00 0. 9.
#pdf   21   21  9.292991e-02  1.412076e-02  2.351990e+02  8.882907e-01  6.174958e+00
</event>
<event>
    12  9999  1.000000e+00  2.001955e+02  7.887821e-03  1.057226e-01
       21    -1     0     0   101   102  0.0000000000e+00  0.0000000000e+00  3.1056478682e+02  3.1056478682e+02  0.0000000000e+00 0. 9.
       21    -1     0     0   103   101  0.0000000000e+00  0.0000000000e+00 -2.1059140824e+02  2.1059140824e+02  0.0000000000e+00 0. 9.
        6     2     1     2   103     0  2.8395406456e+01 -1.0057031279e+02 -1.1214173888e+02  2.2956838948e+02  1.7089525719e+02  1.155264e-14 9.
       -6     2     1     2     0   102 -2.8395406456e+01  1.0057031279e+02  2.1211511746e+02  2.9158780558e+02  1.7061634852e+02  1.363718e-13 9.
       24     2     3     0     0     0  5.4450095628e+01 -6.3462271404e+01 -8.3199441994e+00  1.1617589143e+02  8.0220592576e+01  1.077909e-13 9.
        5     1     3     0   103     0 -2.6054689172e+01 -3.7108041382e+01 -1.0382179468e+02  1.1339249805e+02  4.8000000000e+00 0. 9.
      -24     2     4     0     0     0 -4.4124957017e+01  4.3228245610e+01  4.0164580415e+01  1.0958352371e+02  8.1115116332e+01  9.619841e-15 9.
       -5     1     4     0     0   102  1.5729550561e+01  5.7342067175e+01  1.7195053705e+02  1.8200428187e+02  4.8000000000e+00 0. 9.
      -15     1     5     0     0     0  6.0226211881e+01 -2.4244178921e+01 -2.9384935697e+01  7.1285400640e+01  1.7768200000e+00  7.880393e-02 9.
       16     1     5     0     0     0 -5.7761162531e+00 -3.9218092482e+01  2.1064991497e+01  4.4890490794e+01  0.0000000000e+00 0. 9.
       11     1     7     0     0     0  2.2508035005e+01  7.2526172652e-01  4.9422712458e+00  2.3055665024e+01  5.1100000000e-04 0. 9.
      -12     1     7     0     0     0 -6.6632992022e+01  4.2502983883e+01  3.5222309169e+01  8.6527858681e+01  0.0000000000e+00 0. 9.
#pdf   21   21  4.777920e-02  3.239868e-02  2.000765e+02  1.996345e+00  2.965320e+00
</event>
<event>
    12  9999  1.000000e+00  1.816950e+02  7.879083e-03  1.069815e-01
       21    -1     0     0   101   102  0.0000000000e+00  0.0000000000e+00  7.2865382248e+01  7.2865382248e+01  0.0000000000e+00 0. 9.
       21    -1     0     0   103   101  0.0000000000e+00  0.0000000000e+00 -4.5801899455e+02  4.5801899455e+02  0.0000000000e+00 0. 9.
        6     2     1     2   103     0 -5.8229910115e+01 -1.3322716158e+01 -1.6473138600e+02  2.4507530840e+02  1.7133960445e+02  1.560882e-13 9.
       -6     2     1     2     0   102  5.8229910115e+01  1.3322716158e+01 -2.2042222630e+02  2.8580906840e+02  1.7185065765e+02  7.480220e-14 9.
       24     2     3     0     0     0 -1.0381370466e+02 -2.9299123399e+01 -1.2519602563e+02  1.8247169322e+02  7.7370214471e+01  6.509686e-16 9.
        5     1     3     0   103     0  4.5583794543e+01  1.5976407241e+01 -3.9535360371e+01  6.2603615175e+01  4.8000000000e+00 0. 9.
      -24     2     4     0     0     0  1.6790373228e+01  5.2427238552e+01 -2.0487890289e+02  2.2655509139e+02  7.9506682797e+01  1.438605e-14 9.
       -5     1     4     0     0   102  4.1439536887e+01 -3.9104522393e+01 -1.5543323411e+01  5.9253977012e+01  4.8000000000e+00 0. 9.
       -1     1     5     0     0   104  9.4482645665e+00  8.8737881206e+00 -9.0514838931e+00  1.5813035117e+01  3.3000000000e-01 0. 9.
        2     1     5     0   104     0 -1.1326196922e+02 -3.8172911520e+01 -1.1614454173e+02  1.6665865810e+02  3.3000000000e-01 0. 9.
        3     1     7     0   105     0  4.9363219180e+00  7.2802151561e+01 -1.4992898168e+02  1.6674372580e+02  5.0000000000e-01 0. 9.
       -4     1     7     0     0   105  1.1854051310e+01 -2.0374913009e+01 -5.4949921214e+01  5.9811365593e+01  1.5000000000e+00 0. 9.
#pdf   21   21  1.121006e-02  7.046446e-02  1.814538e+02  7.424557e+00  1.292975e+00
</event>
<event>
    12  9999  1.000000e+00  1.779008e+02  7.877183e-03  1.072595e-01
       -2    -1     0     0     0   101  0.0000000000e+00  0.0000000000e+00  7.9173491705e+01  7.9173491705e+01  0.0000000000e+00 0. 9.
        2    -1     0     0   102     0  0.0000000000e+00  0.0000000000e+00 -4.0061265384e+02  4.0061265384e+02  0.0000000000e+00 0. 9.
       -6     2     1     2     0   101 -4.6362928925e+01  2.7611107876e+01 -1.4836513687e+02  2.3052489319e+02  1.6798100512e+02  2.562757e-14 9.
        6     2     1     2   102     0  4.6362928925e+01 -2.7611107876e+01 -1.7307402526e+02  2.4926125236e+02  1.7106916511e+02  1.275412e-13 9.
      -24     2     3     0     0     0  8.7819619109e+00 -2.6809960779e+01 -1.1633555790e+02  1.4655141149e+02  8.4542636146e+01  6.375912e-14 9.
       -5     1     3     0     0   101 -5.5144890836e+01  5.4421068655e+01 -3.2029578976e+01  8.3973481697e+01  4.8000000000e+00 0. 9.
       24     2     4     0     0     0 -1.7595979422e+01  2.8267514967e+01 -7.7101630505e+01  1.2101577289e+02  8.7129128129e+01  4.198144e-14 9.
        5     1     4     0   102     0  6.3958908347e+01 -5.5878622843e+01 -9.5972394759e+01  1.2824547947e+02  4.8000000000e+00 0. 9.
        3     1     5     0   103     0  5.3432640696e-01  2.9335640656e+01 -5.8849553522e+01  6.5760058297e+01  5.0000000000e-01 0. 9.
       -4     1     5     0     0   103  8.2476355039e+00 -5.6145601435e+01 -5.7486004373e+01  8.0791353193e+01  1.5000000000e+00 0. 9.
      -11     1     7     0     0     0  2.0284259032e+01  2.7715069546e+01  8.3958922301e-01  3.4355220196e+01  5.1100000000e-04 0. 9.
       12     1     7     0     0     0 -3.7880238454e+01  5.5244542178e-01 -7.7941219728e+01  8.6660552698e+01  0.0000000000e+00 0. 9.
#pdf   -2    2  1.218054e-02  6.163272e-02  1.764356e+02  4.609923e-01  6.128483e-01
</event>
<event>
    12  9999  1.000000e+00  1.913484e+02  7.883745e-03  1.063057e-01
       21    -1     0     0   101   102  0.0000000000e+00  0.0000000000e+00  9.8390015025e+01  9.8390015025e+01  0.0000000000e+00 0. 9.
       21    -1     0     0   102   103  0.0000000000e+00  0.0000000000e+00 -3.7229146478e+02  3.7229146478e+02  0.0000000000e+00 0. 9.
        6     2     1     2   101     0  2.1259583794e+01  8.2648144516e+01 -1.4159663805e+02  2.3782669573e+02  1.7096562110e+02  1.794523e-13 9.
       -6     2     1     2     0   103 -2.1259583794e+01 -8.2648144516e+01 -1.3230481170e+02  2.3285478408e+02  1.7156369538e+02  7.534485e-14 9.
       24     2     3     0     0     0  6.2226324770e+01  8.8253656772e+01 -6.1999009232e+01  1.4800176518e+02  7.9998887016e+01  2.209450e-14 9.
        5     1     3     0   101     0 -4.0966740976e+01 -5.6055122555e+00 -7.9597628822e+01  8.9824930548e+01  4.8000000000e+00 0. 9.
      -24     2     4     0     0     0  2.8957061349e+01  7.1872771510e+00 -4.3002380983e+01  9.6509345692e+01  8.1084404671e+01  3.985278e-14 9.
       -5     1     4     0     0   103 -5.0216645144e+01 -8.9835421667e+01 -8.9302430720e+01  1.3634543838e+02  4.8000000000e+00 0. 9.
       -1     1     5     0     0   104  3.2977508373e+01 -1.1734137521e+00  3.7554630471e+00  3.3213029988e+01  3.3000000000e-01 0. 9.
        2     1     5     0   104     0  2.9248816397e+01  8.9427070524e+01 -6.5754472279e+01  1.1478873520e+02  3.3000000000e-01 0. 9.
        3     1     7     0   105     0 -5.6956427991e+00 -1.8701694708e+01 -4.9052308997e+01  5.2806938462e+01  5.0000000000e-01 0. 9.
       -4     1     7     0     0   105  3.4652704148e+01  2.5888971859e+01  6.0499280134e+00  4.3702407230e+01  1.5000000000e+00 0. 9.
#pdf   21   21  1.513693e-02  5.727561e-02  1.910809e+02  5.840933e+00  1.640222e+00
</event>
<event>
    12  9999  1.000000e+00  1.770844e+02  7.876770e-03  1.073203e-01
       21    -1     0     0   101   102  0.0000000000e+00  0.0000000000e+00  4.4087899414e+02  4.4087899414e+02  0.0000000000e+00 0. 9.
       21    -1     0     0   102   103  0.0000000000e+00  0.0000000000e+00 -8.4283787343e+02  8.4283787343e+02  0.0000000000e+00 0. 9.
        6     2     1     2   101     0 -2.9113752839e+01  3.2877523518e+01  4.1316450033e+02  4.4965440201e+02  1.7191752314e+02  8.048629e-14 9.
       -6     2     1     2     0   103  2.9113752839e+01 -3.2877523518e+01 -8.1512337962e+02  8.3406246555e+02  1.7118858106e+02  4.413552e-13 9.
       24     2     3     0     0     0 -3.1198569983e+01  7.0980602507e+01  3.8802629624e+02  4.0370703652e+02  8.0021047631e+01  1.058718e-13 9.
        5     1     3     0   101     0  2.0848171446e+00 -3.8103078989e+01  2.5138204090e+01  4.5947365494e+01  4.8000000000e+00 0. 9.
      -24     2     4     0     0     0  6.1488701885e+01 -1.4531877294e+01 -7.6287388582e+02  7.6973712324e+02  8.0787606199e+01  4.033910e-14 9.
       -5     1     4     0     0   103 -3.2374949046e+01 -1.8345646224e+01 -5.2249493801e+01  6.4325342312e+01  4.8000000000e+00 0. 9.
       -3     1     5     0     0   104  2.5453777524e+01  1.2415102323e+01  7.2791232669e+01  7.8107894027e+01  5.0000000000e-01 0. 9.
        4     1     5     0   104     0 -5.6652347507e+01  5.8565500184e+01  3.1523506357e+02  3.2559914249e+02  1.5000000000e+00 0. 9.
       15     1     7     0     0     0  1.9168570067e+01  3.3438762226e+01 -2.8291331610e+02  2.8553228612e+02  1.7768200000e+00  1.775742e-02 9.
      -16     1     7     0     0     0  4.2320131819e+01 -4.7970639520e+01 -4.7996056971e+02  4.8420483712e+02  0.0000000000e+00 0. 9.
#pdf   21   21  6.782754e-02  1.296674e-01  1.767316e+02  1.356084e+00  5.703731e-01
</event>
<event>
    12  9999  1.000000e+00  1.900208e+02  7.883118e-03  1.063961e-01
       21    -1     0     0   101   102  0.0000000000e+00  0.0000000000e+00  3.8822166480e+01  3.8822166480e+01  0.0000000000e+00 0. 9.
       21    -1     0     0   102   103  0.0000000000e+00  0.0000000000e+00 -1.2858065053e+03  1.2858065053e+03  0.0000000000e+00 0. 9.
        6     2     1     2   101     0 -4.4947315167e+01  4.5833347021e+01 -2.7741184662e+02  3.3679395974e+02  1.7986628876e+02  2.043516e-14 9.
       -6     2     1     2     0   103  4.4947315167e+01 -4.5833347021e+01 -9.6957249225e+02  9.8783471209e+02  1.7783600264e+02  5.300447e-14 9.
       24     2     3     0     0     0 -2.1283845521e+01 -4.2607369283e+01 -1.7882260650e+02  2.0216633122e+02  8.1396012695e+01  1.805669e-13 9.
        5     1     3     0   101     0 -2.3663469645e+01  8.8440716304e+01 -9.8589240112e+01  1.3462762852e+02  4.8000000000e+00 0. 9.
      -24     2     4     0     0     0  9.6861546010e+01 -5.1740225453e+01 -6.9333814902e+02  7.0666140084e+02  8.1199362852e+01  1.184116e-13 9.
       -5     1     4     0     0   103 -5.1914230844e+01  5.9068784318e+00 -2.7623434324e+02  2.8117331125e+02  4.8000000000e+00 0. 9.
       -3     1     5     0     0   104 -1.0069719407e+01  1.3695211358e+01 -3.0853347261e+00  1.7283730889e+01  5.0000000000e-01 0. 9.
        4     1     5     0   104     0 -1.1214126114e+01 -5.6302580641e+01 -1.7573727178e+02  1.8488260033e+02  1.5000000000e+00 0. 9.
        1     1     7     0   105     0  1.5859025313e+01 -6.7079037122e+00 -3.6738448132e+02  3.6778794253e+02  3.3000000000e-01 0. 9.
       -2     1     7     0     0   105  8.1002520697e+01 -4.5032321741e+01 -3.2595366770e+02  3.3887345831e+02  3.3000000000e-01 0. 9.
#pdf   21   21  5.972641e-03  1.978164e-01  1.890677e+02  1.186216e+01  2.752535e-01
</event>
<event>
    12  9999  1.000000e+00  1.888460e+02  7.882559e-03  1.064767e-01
       21    -1     0     0   101   102  0.0000000000e+00  0.0000000000e+00  5.2062085974e+02  5.2062085974e+02  0.0000000000e+00 0. 9.
       21    -1     0     0   102   103  0.0000000000e+00  0.0000000000e+00 -7.9795475300e+02  7.9795475300e+02  0.0000000000e+00 0. 9.
        6     2     1     2   101     0 -2.6265259251e+01 -6.9038945036e+01  4.9146422616e+02  5.2769127585e+02  1.7738308048e+02  1.329253e-14 9.
       -6     2     1     2     0   103  2.6265259251e+01  6.9038945036e+01 -7.6879811942e+02  7.9088433689e+02  1.7026815950e+02  8.664885e-14 9.
       24     2     3     0     0     0 -5.8943814541e+01 -7.0534806419e+01  4.7563742419e+02  4.9103539996e+02  8.0220150420e+01  1.241393e-14 9.
        5     1     3     0   101     0  3.2678555290e+01  1.4958613827e+00  1.5826801976e+01  3.6655875899e+01  4.8000000000e+00 0. 9.
      -24     2     4     0     0     0  1.1205981299e+01  1.1188262792e+02 -5.3572218429e+02  5.5337687479e+02  8.1144379766e+01  6.932861e-14 9.
       -5     1     4     0     0   103  1.5059277953e+01 -4.2843682885e+01 -2.3307593513e+02  2.3750746210e+02  4.8000000000e+00 0. 9.
       -1     1     5     0     0   104 -3.6671093884e+01 -1.0501344419e+01  6.4457400151e+01  7.4899350435e+01  3.3000000000e-01 0. 9.
        2     1     5     0   104     0 -2.2272720657e+01 -6.0033461999e+01  4.1118002404e+02  4.1613604952e+02  3.3000000000e-01 0. 9.
       11     1     7     0     0     0 -2.1984113267e+01  9.6329064522e+01 -3.3228126943e+02  3.4666039855e+02  5.1100000000e-04 0. 9.
      -12     1     7     0     0     0  3.3190094565e+01  1.5553563399e+01 -2.0344091485e+02  2.0671647624e+02  0.0000000000e+00 0. 9.
#pdf   21   21  8.009552e-02  1.227623e-01  1.856003e+02  1.102295e+00  6.155351e-01
</event>
<event>
    12  9999  1.000000e+00  1.944522e+02  7.885196e-03  1.060973e-01
       21    -1     0     0   101   102  0.0000000000e+00  0.0000000000e+00  1.2270577753e+02  1.2270577753e+02  0.0000000000e+00 0. 9.
       21    -1     0     0   103   101  0.0000000000e+00  0.0000000000e+00 -3.1961594222e+02  3.1961594222e+02  0.0000000000e+00 0. 9.
        6     2     1     2   103     0  2.5772737605e+01  8.9837510425e+01 -1.4027426223e+02  2.3964930255e+02  1.7035230344e+02  1.097605e-13 9.
       -6     2     1     2     0   102 -2.5772737605e+01 -8.9837510425e+01 -5.6635902463e+01  2.0267241720e+02  1.7068529803e+02  2.148480e-13 9.
       24     2     3     0     0     0  7.1264399613e+01  1.0061174314e+02 -1.0009497972e+02  1.7781896901e+02  7.9995270266e+01  8.475823e-14 9.
        5     1     3     0   103     0 -4.5491662009e+01 -1.0774232714e+01 -4.0179282512e+01  6.1830333544e+01  4.8000000000e+00 0. 9.
      -24     2     4     0     0     0 -4.7853069307e+01 -3.3578792898e+01  2.4087864771e+01  1.0171722446e+02  7.9678836257e+01  3.358445e-15 9.
       -5     1     4     0     0   102  2.2080331702e+01 -5.6258717527e+01 -8.0723767234e+01  1.0095519275e+02  4.8000000000e+00 0. 9.
       -3     1     5     0     0   104 -7.9235632455e+00  3.5154909503e+01 -5.4658617962e+01  6.5471100756e+01  5.0000000000e-01 0. 9.
        4     1     5     0   104     0  7.9187962859e+01  6.5456833635e+01 -4.5436361757e+01  1.1234786825e+02  1.5000000000e+00 0. 9.
        1     1     7     0   105     0 -6.4238478654e+00 -1.6723563828e+01 -2.7886421939e+01  3.3146716837e+01  3.3000000000e-01 0. 9.
       -2     1     7     0     0   105 -4.1429221442e+01 -1.6855229070e+01  5.1974286709e+01  6.8570507619e+01  3.3000000000e-01 0. 9.
#pdf   21   21  1.887781e-02  4.917168e-02  1.943063e+02  4.852031e+00  1.939031e+00
</event>
<event>
    12  9999  1.000000e+00  1.782887e+02  7.877379e-03  1.072308e-01
       21    -1     0     0   101   102  0.0000000000e+00  0.0000000000e+00  9.4365386773e+02  9.4365386773e+02  0.0000000000e+00 0. 9.
       21    -1     0     0   102   103  0.0000000000e+00  0.0000000000e+00 -8.1454677875e+01  8.1454677875e+01  0.0000000000e+00 0. 9.
        6     2     1     2   101     0  4.1804735403e+01  2.5412694841e+01  8.2443619242e+02  8.4366885805e+02  1.7230399214e+02  5.180235e-14 9.
       -6     2     1     2     0   103 -4.1804735403e+01 -2.5412694841e+01  3.7762997434e+01  1.8143968756e+02  1.7058978658e+02  2.852055e-14 9.
       24     2     3     0     0     0  2.7543890649e+01 -1.6928396338e-01  8.0206334001e+02  8.0650175085e+02  7.9879773169e+01  1.192414e-13 9.
        5     1     3     0   101     0  1.4260844754e+01  2.5581978804e+01  2.2372852405e+01  3.7167107197e+01  4.8000000000e+00 0. 9.
      -24     2     4     0     0     0 -1.8323093464e+01 -5.5412323466e+01  7.8827567859e+01  1.2521954730e+02  7.7845283907e+01  1.236779e-13 9.
       -5     1     4     0     0   103 -2.3481641939e+01  2.9999628625e+01 -4.1064570425e+01  5.6220140252e+01  4.8000000000e+00 0. 9.
      -13     1     5     0     0     0  1.2680855369e+00 -2.9159876709e+01  1.2722634447e+02  1.3053145346e+02  1.0566000000e-01  1.126333e+05 9.
       14     1     5     0     0     0  2.6275805112e+01  2.8990592746e+01  6.7483699555e+02  6.7597029740e+02  0.0000000000e+00 0. 9.
       15     1     7     0     0     0 -2.6016549538e+01 -5.1809020428e+01  1.3775475470e+01  5.9615067402e+01  1.7768200000e+00  1.449863e-01 9.
      -16     1     7     0     0     0  7.6934560741e+00 -3.6033030385e+00  6.5052092389e+01  6.5604479903e+01  0.0000000000e+00 0. 9.
#pdf   21   21  1.451775e-01  1.253149e-02  1.774664e+02  4.780963e-01  6.801779e+00
</event>
<event>
    12  9999  1.000000e+00  2.153160e+02  7.894395e-03  1.047968e-01
       21    -1     0     0   101   102  0.0000000000e+00  0.0000000000e+00  3.4386151717e+02  3.4386151717e+02  0.0000000000e+00 0. 9.
       21    -1     0     0   102   103  0.0000000000e+00  0.0000000000e+00 -1.5953460077e+02  1.5953460077e+02  0.0000000000e+00 0. 9.
        6     2     1     2   101     0  1.3152375131e+02  2.3795316292e+00  1.9121263828e+02  2.8794568323e+02  1.7042970436e+02  3.874000e-13 9.
       -6     2     1     2     0   103 -1.3152375131e+02 -2.3795316292e+00 -6.8857218769e+00  2.1545043471e+02  1.7049139955e+02  6.454693e-14 9.
       24     2     3     0     0     0  5.6977917773e+01  1.5404391272e+01  1.8635433758e+02  2.1196297894e+02  8.1954785844e+01  4.516061e-14 9.
        5     1     3     0   101     0  7.4545833535e+01 -1.3024859643e+01  4.8583006994e+00  7.5982704294e+01  4.8000000000e+00 0. 9.
      -24     2     4     0     0     0 -8.9612034124e+01  6.2920520212e+01 -1.6011513011e+01  1.3717522234e+02  8.1063953460e+01  1.782753e-13 9.
       -5     1     4     0     0   103 -4.1911717183e+01 -6.5300051841e+01  9.1257911346e+00  7.8275212370e+01  4.8000000000e+00 0. 9.
       -1     1     5     0     0   104 -1.1059142756e+01 -1.7618201174e+01  7.1339097989e+01  7.4310708871e+01  3.3000000000e-01 0. 9.
        2     1     5     0   104     0  6.8037060529e+01  3.3022592446e+01  1.1501523959e+02  1.3765227007e+02  3.3000000000e-01 0. 9.
        1     1     7     0   105     0 -9.4035588520e+01  6.6895082459e+01  4.8257839745e+00  1.1550342444e+02  3.3000000000e-01 0. 9.
       -2     1     7     0     0   105  4.4235543962e+00 -3.9745622471e+00 -2.0837296986e+01  2.1671797900e+01  3.3000000000e-01 0. 9.
#pdf   21   21  5.290177e-02  2.454378e-02  2.152915e+02  1.777966e+00  3.838190e+00
</event>
<event>
    12  9999  1.000000e+00  2.599688e+02  7.911462e-03  1.024753e-01
       21    -1     0     0   101   102  0.0000000000e+00  0.0000000000e+00  2.2332950805e+02  2.2332950805e+02  0.0000000000e+00 0. 9.
       21    -1     0     0   103   101  0.0000000000e+00  0.0000000000e+00 -3.0311701696e+02  3.0311701696e+02  0.0000000000e+00 0. 9.
        6     2     1     2   103     0  5.5127247311e+01  1.8737609172e+02 -2.9188933521e+01  2.6135307479e+02  1.7118593026e+02  2.692769e-14 9.
       -6     2     1     2     0   102 -5.5127247311e+01 -1.8737609172e+02 -5.0598575386e+01  2.6509345021e+02  1.7194623686e+02  1.320201e-14 9.
       24     2     3     0     0     0  4.0308417172e+01  2.0334133412e+02 -5.3520450521e+01  2.2834475143e+02  7.9400379265e+01  4.857018e-14 9.
        5     1     3     0   103     0  1.4818830139e+01 -1.5965242397e+01  2.4331517000e+01  3.3008323360e+01  4.8000000000e+00 0. 9.
      -24     2     4     0     0     0 -8.8734983016e+01 -1.0008138766e+02 -7.8997151591e+01  1.6721922283e+02  6.1899411596e+01  1.421185e-13 9.
       -5     1     4     0     0   102  3.3607735705e+01 -8.7294704061e+01  2.8398576205e+01  9.7874227388e+01  4.8000000000e+00 0. 9.
      -15     1     5     0     0     0  4.9598674324e+01  6.4422620817e+01 -3.2322965927e+01  8.7511335170e+01  1.7768200000e+00  8.336818e-02 9.
       16     1     5     0     0     0 -9.2902571525e+00  1.3891871330e+02 -2.1197484594e+01  1.4083341626e+02  0.0000000000e+00 0. 9.
        3     1     7     0   104     0 -7.0324509043e+01 -1.0307911799e+02 -8.0417525176e+01  1.4845224651e+02  5.0000000000e-01 0. 9.
       -4     1     7     0     0   104 -1.8410473973e+01  2.9977303277e+00  1.4203735854e+00  1.8766976319e+01  1.5000000000e+00 0. 9.
#pdf   21   21  3.435839e-02  4.663339e-02  2.597180e+02  2.766784e+00  2.016441e+00
</event>
<event>
    12  9999  1.000000e+00  2.127713e+02  7.893321e-03  1.049469e-01
       21    -1     0     0   101   102  0.0000000000e+00  0.0000000000e+00  1.5363258915e+02  1.5363258915e+02  0.0000000000e+00 0. 9.
       21    -1     0     0   102   103  0.0000000000e+00  0.0000000000e+00 -4.8445489807e+02  4.8445489807e+02  0.0000000000e+00 0. 9.
        6     2     1     2   101     0 -1.1923904081e+02 -6.8298270301e+01  3.7220123977e+01  2.0953564144e+02  1.5374408874e+02  7.066106e-14 9.
       -6     2     1     2     0   103  1.1923904081e+02  6.8298270301e+01 -3.6804243290e+02  4.2855184578e+02  1.7122747889e+02  1.407354e-13 9.
       24     2     3     0     0     0 -3.7547831976e+01 -8.3727259853e+00  9.7410046629e+00  1.0445154911e+02  9.6619339226e+01  9.244487e-14 9.
        5     1     3     0   101     0 -8.1691208834e+01 -5.9925544316e+01  2.7479119314e+01  1.0508409233e+02  4.8000000000e+00 0. 9.
      -24     2     4     0     0     0  5.9856430243e+01  9.9939060992e+01 -3.0346740567e+02  3.3516871981e+02  8.1700650451e+01  5.573791e-14 9.
       -5     1     4     0     0   103  5.9382610566e+01 -3.1640790691e+01 -6.4575027229e+01  9.3383125964e+01  4.8000000000e+00 0. 9.
       -3     1     5     0     0   104 -5.4808988041e+01 -2.4041266171e+01 -2.3095536655e+01  6.4153421285e+01  5.0000000000e-01 0. 9.
        4     1     5     0   104     0  1.7261156065e+01  1.5668540185e+01  3.2836541318e+01  4.0298127822e+01  1.5000000000e+00 0. 9.
       11     1     7     0     0     0  1.8893490009e+00  5.2229848715e+01 -5.6159364238e+01  7.6716366757e+01  5.1100000000e-04 0. 9.
      -12     1     7     0     0     0  5.7967081243e+01  4.7709212277e+01 -2.4730804143e+02  2.5845235306e+02  0.0000000000e+00 0. 9.
#pdf   21   21  2.363578e-02  7.453152e-02  2.062034e+02  3.976549e+00  1.194717e+00
</event>
<event>
    12  9999  1.000000e+00  2.229592e+02  7.897548e-03  1.043591e-01
       21    -1     0     0   101   102  0.0000000000e+00  0.0000000000e+00  9.5424283293e+01  9.5424283293e+01  0.0000000000e+00 0. 9.
       21    -1     0     0   103   101  0.0000000000e+00  0.0000000000e+00 -8.2541819406e+02  8.2541819406e+02  0.0000000000e+00 0. 9.
        6     2     1     2   103     0 -1.4385068906e+02  1.9024551712e+01 -6.4573491050e+02  6.8349514917e+02  1.7069589920e+02  2.588850e-13 9.
       -6     2     1     2     0   102  1.4385068906e+02 -1.9024551712e+01 -8.4259000272e+01  2.3734732818e+02  1.6786667554e+02  2.844321e-14 9.
       24     2     3     0     0     0 -1.6044532446e+02 -1.2614344489e+01 -4.4912440232e+02  4.8360734664e+02  7.9129723463e+01  1.479768e-14 9.
        5     1     3     0   103     0  1.6594635409e+01  3.1638896201e+01 -1.9661050818e+02  1.9988780254e+02  4.8000000000e+00 0. 9.
      -24     2     4     0     0     0  9.0656975978e+01  1.8782956598e+01 -2.8463643796e+00  1.3289621005e+02  9.5298552471e+01  4.127160e-14 9.
       -5     1     4     0     0   102  5.3193713077e+01 -3.7807508310e+01 -8.1412635892e+01  1.0445111813e+02  4.8000000000e+00 0. 9.
       -3     1     5     0     0   104 -3.6472219828e+01 -2.1879492610e+01 -2.0813882634e+02  2.1244047648e+02  5.0000000000e-01 0. 9.
        4     1     5     0   104     0 -1.2397310464e+02  9.2651481205e+00 -2.4098557598e+02  2.7116687016e+02  1.5000000000e+00 0. 9.
        3     1     7     0   105     0  6.0868993123e+01 -3.0960293003e+01 -2.2108380447e+01  7.1781644956e+01  5.0000000000e-01 0. 9.
       -4     1     7     0     0   105  2.9787982855e+01  4.9743249601e+01  1.9262016067e+01  6.1114565092e+01  1.5000000000e+00 0. 9.
#pdf   21   21  1.468066e-02  1.269874e-01  2.218878e+02  5.983418e+00  5.723528e-01
</event>
<event>
    12  9999  1.000000e+00  2.365580e+02  7.902906e-03  1.036246e-01
       21    -1     0     0   101   102  0.0000000000e+00  0.0000000000e+00  7.6303178371e+02  7.6303178371e+02  0.0000000000e+00 0. 9.
       21    -1     0     0   103   101  0.0000000000e+00  0.0000000000e+00 -9.4720672337e+01  9.4720672337e+01  0.0000000000e+00 0. 9.
        6     2     1     2   103     0 -7.9595139910e+01 -1.4276141566e+02  1.3004579382e+02  2.6967255385e+02  1.7057306267e+02  1.246905e-14 9.
       -6     2     1     2     0   102  7.9595139910e+01  1.4276141566e+02  5.3826531755e+02  5.8807990220e+02  1.7144156787e+02  1.688567e-13 9.
       24     2     3     0     0     0 -5.0560378030e+01 -1.2755500719e+02  2.7479240577e+01  1.6188948421e+02  8.1403100369e+01  6.642697e-14 9.
        5     1     3     0   103     0 -2.9034761879e+01 -1.5206408476e+01  1.0256655324e+02  1.0778306964e+02  4.8000000000e+00 0. 9.
      -24     2     4     0     0     0  3.6204373185e+01  2.4786987377e+01  1.1258697891e+02  1.4420400473e+02  7.8700799100e+01  5.594538e-14 9.
       -5     1     4     0     0   102  4.3390766724e+01  1.1797442829e+02  4.2567833864e+02  4.4387589747e+02  4.8000000000e+00 0. 9.
       -3     1     5     0     0   104 -3.7919116744e+01 -8.5364681536e+01  5.6458732648e+01  1.0914589667e+02  5.0000000000e-01 0. 9.
        4     1     5     0   104     0 -1.2641261286e+01 -4.2190325650e+01 -2.8979492071e+01  5.2743587535e+01  1.5000000000e+00 0. 9.
        3     1     7     0   105     0  4.6073511229e+01 -1.3538844229e+01  7.8124152326e+01  9.1704426920e+01  5.0000000000e-01 0. 9.
       -4     1     7     0     0   105 -9.8691380435e+00  3.8325831606e+01  3.4462826581e+01  5.2499577808e+01  1.5000000000e+00 0. 9.
#pdf   21   21  1.173895e-01  1.457241e-02  2.362443e+02  6.390265e-01  6.016821e+00
</event>
<event>
    12  9999  1.000000e+00  2.167936e+02  7.895013e-03  1.047107e-01
       21    -1     0     0   101   102  0.0000000000e+00  0.0000000000e+00  6.6829699500e+01  6.6829699500e+01  0.0000000000e+00 0. 9.
       21    -1     0     0   103   101  0.0000000000e+00  0.0000000000e+00 -7.7266128436e+02  7.7266128436e+02  0.0000000000e+00 0. 9.
        6     2     1     2   103     0  2.2301586440e+01  1.3216809996e+02 -2.2722837823e+02  3.1410419335e+02  1.7047856464e+02  2.741286e-13 9.
       -6     2     1     2     0   102 -2.2301586440e+01 -1.3216809996e+02 -4.7860320663e+02  5.2538679051e+02  1.7030702523e+02  6.303016e-14 9.
       24     2     3     0     0     0  3.5941237455e+01  9.0138541006e+00 -9.1539064371e+01  1.3029005284e+02  8.4988678355e+01  7.098799e-14 9.
        5     1     3     0   103     0 -1.3639651015e+01  1.2315424586e+02 -1.3568931386e+02  1.8381414050e+02  4.8000000000e+00 0. 9.
      -24     2     4     0     0     0  1.0574417675e+01 -1.5565490916e+02 -4.0595451294e+02  4.4212014324e+02  7.9566861384e+01  1.230886e-13 9.
       -5     1     4     0     0   102 -3.2876004115e+01  2.3486809193e+01 -7.2648693691e+01  8.3266647271e+01  4.8000000000e+00 0. 9.
       -1     1     5     0     0   104  5.6136778368e+01 -9.2793797961e+00 -8.4964765567e+01  1.0225734723e+02  3.3000000000e-01 0. 9.
        2     1     5     0   104     0 -2.0195540913e+01  1.8293233897e+01 -6.5742988031e+00  2.8032705612e+01  3.3000000000e-01 0. 9.
        1     1     7     0   105     0  4.1680779750e+01 -7.9517455606e+01 -1.7015158390e+02  1.9238498785e+02  3.3000000000e-01 0. 9.
       -2     1     7     0     0   105 -3.1106362074e+01 -7.6137453549e+01 -2.3580292904e+02  2.4973515539e+02  3.3000000000e-01 0. 9.
#pdf   21   21  1.028149e-02  1.188710e-01  2.167262e+02  7.951471e+00  6.337506e-01
</event>
<event>
    12  9999  1.000000e+00  2.147862e+02  7.894172e-03  1.048279e-01
       21    -1     0     0   101   102  0.0000000000e+00  0.0000000000e+00  4.0502214425e+01  4.0502214425e+01  0.0000000000e+00 0. 9.
       21    -1     0     0   103   101  0.0000000000e+00  0.0000000000e+00 -1.8697797523e+03  1.8697797523e+03  0.0000000000e+00 0. 9.
        6     2     1     2   103     0 -6.3330088671e+01 -1.1333183690e+02 -1.5125612576e+03  1.5277790697e+03  1.7150079380e+02  1.795153e-13 9.
       -6     2     1     2     0   102  6.3330088671e+01  1.1333183690e+02 -3.1671628027e+02  3.8250289708e+02  1.7071748210e+02  2.238091e-14 9.
       24     2     3     0     0     0  2.6886702109e-01 -4.9272798606e+01 -3.7765261190e+02  3.8927607816e+02  8.0538740849e+01  1.000593e-13 9.
        5     1     3     0   103     0 -6.3598955692e+01 -6.4059038295e+01 -1.1349086457e+03  1.1385029915e+03  4.8000000000e+00 0. 9.
      -24     2     4     0     0     0 -1.5211275930e+01  2.5335939328e+01 -1.9318686624e+02  2.1163868176e+02  8.1218677615e+01  1.391831e-13 9.
       -5     1     4     0     0   102  7.8541364600e+01  8.7995897573e+01 -1.2352941404e+02  1.7086421531e+02  4.8000000000e+00 0. 9.
       -3     1     5     0     0   104 -3.8282638457e+01 -1.4811802781e+01 -2.0366583034e+02  2.0776181159e+02  5.0000000000e-01 0. 9.
        4     1     5     0   104     0  3.8551505478e+01 -3.4460995824e+01 -1.7398678157e+02  1.8151426657e+02  1.5000000000e+00 0. 9.
       15     1     7     0     0     0  2.6134560430e+01  2.0556530417e+01 -3.6014671668e+01  4.9048953672e+01  1.7768200000e+00  2.450329e-01 9.
      -16     1     7     0     0     0 -4.1345836360e+01  4.7794089105e+00 -1.5717219457e+02  1.6258972809e+02  0.0000000000e+00 0. 9.
#pdf   21   21  6.231110e-03  2.876584e-01  2.144744e+02  1.155157e+01  1.126826e-01
</event>
<event>
    12  9999  1.000000e+00  1.835295e+02  7.879987e-03  1.068497e-01
       21    -1     0     0   101   102  0.0000000000e+00  0.0000000000e+00  2.1937125548e+02  2.1937125548e+02  0.0000000000e+00 0. 9.
       21    -1     0     0   103   101  0.0000000000e+00  0.0000000000e+00 -1.5647155624e+02  1.5647155624e+02  0.0000000000e+00 0. 9.
        6     2     1     2   103     0  2.6941191801e+01  6.3676424095e+01  5.5941593708e+00  1.8260411358e+02  1.6891551994e+02  4.003856e-14 9.
       -6     2     1     2     0   102 -2.6941191801e+01 -6.3676424095e+01  5.7305539868e+01  1.9323869813e+02  1.7110451413e+02  1.411282e-14 9.
       24     2     3     0     0     0  1.6665914793e+01  8.1478661434e+01  5.6486018543e+01  1.2750853934e+02  7.8429792348e+01  1.171788e-13 9.
        5     1     3     0   103     0  1.0275277008e+01 -1.7802237339e+01 -5.0891859172e+01  5.5095574249e+01  4.8000000000e+00 0. 9.
      -24     2     4     0     0     0 -6.4651353233e+01  7.7293502023e+00  3.5568495586e+01  1.0947486362e+02  8.0498991029e+01  2.619858e-14 9.
       -5     1     4     0     0   102  3.7710161432e+01 -7.1405774297e+01  2.1737044282e+01  8.3763834513e+01  4.8000000000e+00 0. 9.
       -3     1     5     0     0   104  3.9154294088e+01  4.3452348891e+01  5.9198132817e+01  8.3221597549e+01  5.0000000000e-01 0. 9.
        4     1     5     0   104     0 -2.2488379295e+01  3.8026312543e+01 -2.7121142742e+00  4.4286941786e+01  1.5000000000e+00 0. 9.
        1     1     7     0   105     0 -4.3802633559e+01 -3.4843063950e+01  2.2054827389e+01  6.0160070839e+01  3.3000000000e-01 0. 9.
       -4     1     7     0     0   105 -2.0848719675e+01  4.2572414153e+01  1.3513668197e+01  4.9314792781e+01  1.5000000000e+00 0. 9.
#pdf   21   21  3.374942e-02  2.407255e-02  1.825184e+02  2.860747e+00  3.923944e+00
</event>
<event>
    12  9999  1.000000e+00  2.052409e+02  7.890067e-03  1.054043e-01
       21    -1     0     0   101   102  0.0000000000e+00  0.0000000000e+00  1.0761049812e+02  1.0761049812e+02  0.0000000000e+00 0. 9.
       21    -1     0     0   102   103  0.0000000000e+00  0.0000000000e+00 -4.1034557656e+02  4.1034557656e+02  0.0000000000e+00 0. 9.
        6     2     1     2   101     0 -9.1862720121e+01 -5.9436609374e+01 -9.4576482731e+01  2.2436632202e+02  1.7153444403e+02  4.348411e-13 9.
       -6     2     1     2     0   103  9.1862720121e+01  5.9436609374e+01 -2.0815859572e+02  2.9358975267e+02  1.7576538913e+02  3.263521e-13 9.
       24     2     3     0     0     0 -8.8928683888e+00 -8.2481653521e+01 -6.6500420960e+01  1.3366695266e+02  8.1007666124e+01  3.202089e-15 9.
        5     1     3     0   101     0 -8.2969851732e+01  2.3045044148e+01 -2.8076061770e+01  9.0699369351e+01  4.8000000000e+00 0. 9.
      -24     2     4     0     0     0 -6.1085938595e+00 -2.1484207045e+00 -2.9594941985e+01  8.0753870523e+01  7.4855837333e+01  2.531162e-14 9.
       -5     1     4     0     0   103  9.7971313980e+01  6.1585030078e+01 -1.7856365373e+02  2.1283588214e+02  4.8000000000e+00 0. 9.
       -3     1     5     0     0   104  2.9994570624e+01 -2.0480771276e+01 -4.4059795223e+01  5.7102117422e+01  5.0000000000e-01 0. 9.
        4     1     5     0   104     0 -3.8887439013e+01 -6.2000882245e+01 -2.2440625738e+01  7.6564835242e+01  1.5000000000e+00 0. 9.
        3     1     7     0   105     0 -2.4705420967e+01  2.8274931856e+01 -2.4165210590e+01  4.4654641410e+01  5.0000000000e-01 0. 9.
       -4     1     7     0     0   105  1.8596827107e+01 -3.0423352561e+01 -5.4297313950e+00  3.6099229113e+01  1.5000000000e+00 0. 9.
#pdf   21   21  1.655546e-02  6.313009e-02  2.034589e+02  5.419581e+00  1.459906e+00
</event>
<event>
    12  9999  1.000000e+00  1.800983e+02  7.878288e-03  1.070976e-01
       21    -1     0     0   101   102  0.0000000000e+00  0.0000000000e+00  4.7044919697e+01  4.7044919697e+01  0.0000000000e+00 0. 9.
       21    -1     0     0   102   103  0.0000000000e+00  0.0000000000e+00 -7.3602433339e+02  7.3602433339e+02  0.0000000000e+00 0. 9.
        6     2     1     2   101     0  5.6242250430e+01 -9.6329006630e+00 -2.4627827061e+02  3.0519393684e+02  1.7098061002e+02  2.526126e-14 9.
       -6     2     1     2     0   103 -5.6242250430e+01  9.6329006630e+00 -4.4270114309e+02  4.7787531625e+02  1.7065911133e+02  1.664112e-14 9.
       24     2     3     0     0     0  5.0662658925e+01 -5.4477383579e+01 -7.8599028785e+01  1.3146562128e+02  7.4638541799e+01  1.002469e-13 9.
        5     1     3     0   101     0  5.5795915047e+00  4.4844482916e+01 -1.6767924182e+02  1.7372831556e+02  4.8000000000e+00 0. 9.
      -24     2     4     0     0     0  2.1245448848e+01 -2.7590963859e+01 -2.8542788856e+02  2.9857702786e+02  8.0414747493e+01  1.483280e-13 9.
       -5     1     4     0     0   103 -7.7487699278e+01  3.7223864522e+01 -1.5727325453e+02  1.7929828839e+02  4.8000000000e+00 0. 9.
       -3     1     5     0     0   104  1.5120328867e+01 -1.1448011827e+01  1.3833978679e+01  2.3479997571e+01  5.0000000000e-01 0. 9.
        4     1     5     0   104     0  3.5542330058e+01 -4.3029371752e+01 -9.2433007464e+01  1.0798562371e+02  1.5000000000e+00 0. 9.
       13     1     7     0     0     0  4.2913025432e+01  8.4137224894e+00 -1.1469357669e+02  1.2274748949e+02  1.0566000000e-01  1.158116e+06 9.
      -14     1     7     0     0     0 -2.1667576584e+01 -3.6004686348e+01 -1.7073431186e+02  1.7582953836e+02  0.0000000000e+00 0. 9.
#pdf   21   21  7.237680e-03  1.132345e-01  1.799459e+02  1.031522e+01  6.949677e-01
</event>
<event>
    12  9999  1.000000e+00  2.289157e+02  7.899933e-03  1.040307e-01
        2    -1     0     0   101     0  0.0000000000e+00  0.0000000000e+00  2.3075416463e+03  2.3075416463e+03  0.0000000000e+00 0. 9.
       -2    -1     0     0     0   102  0.0000000000e+00  0.0000000000e+00 -5.0059668860e+01  5.0059668860e+01  0.0000000000e+00 0. 9.
        6     2     1     2   101     0 -7.8220891156e+01 -1.3055061070e+02  2.0002048919e+03  2.0132687206e+03  1.7108290963e+02  4.888107e-13 9.
       -6     2     1     2     0   102  7.8220891156e+01  1.3055061070e+02  2.5727708553e+02  3.4433259456e+02  1.7091362488e+02  1.896664e-13 9.
       24     2     3     0     0     0 -9.8032219928e+01 -1.3958152483e+02  1.9351972195e+03  1.9445440261e+03  8.4675102555e+01  8.308326e-14 9.
        5     1     3     0   101     0  1.9811328773e+01  9.0309141295e+00  6.5007672428e+01  6.8724694487e+01  4.8000000000e+00 0. 9.
      -24     2     4     0     0     0  6.8641527856e+01  6.0275767104e+01  2.4050143897e+02  2.7129301514e+02  8.6105345179e+01  2.919212e-14 9.
       -5     1     4     0     0   102  9.5793633002e+00  7.0274843600e+01  1.6775646555e+01  7.3039579418e+01  4.8000000000e+00 0. 9.
       -3     1     5     0     0   103 -2.6439973251e+01  5.0864312801e+00  1.9025178198e+02  1.9214820976e+02  5.0000000000e-01 0. 9.
        4     1     5     0   103     0 -7.1592246677e+01 -1.4466795611e+02  1.7449454375e+03  1.7523958164e+03  1.5000000000e+00 0. 9.
        1     1     7     0   104     0  3.0301753992e+01  1.3771354408e+01  1.8931403965e+02  1.9221800385e+02  3.3000000000e-01 0. 9.
       -2     1     7     0     0   104  3.8339773864e+01  4.6504412696e+01  5.1187399324e+01  7.9075011285e+01  3.3000000000e-01 0. 9.
#pdf    2   -2  3.550064e-01  7.701488e-03  2.288524e+02  2.314165e-01  6.108268e-01
</event>
<event>
    12  9999  1.000000e+00  1.713880e+02  7.873829e-03  1.077545e-01
       21    -1     0     0   101   102  0.0000000000e+00  0.0000000000e+00  8.8212074770e+01  8.8212074770e+01  0.0000000000e+00 0. 9.
       21    -1     0     0   102   103  0.0000000000e+00  0.0000000000e+00 -1.1161439950e+03  1.1161439950e+03  0.0000000000e+00 0. 9.
        6     2     1     2   101     0 -2.2215626381e+01  3.3672396870e+01 -1.4735735608e+01  1.7766717400e+02  1.7239813933e+02  1.450315e-13 9.
       -6     2     1     2     0   103  2.2215626381e+01 -3.3672396870e+01 -1.0131961846e+03  1.0266888958e+03  1.6092301204e+02  5.245257e-14 9.
       24     2     3     0     0     0 -3.0244057520e+01  8.0941884395e+01 -3.8585199902e+01  1.2390197052e+02  7.9978678305e+01  8.382269e-14 9.
        5     1     3     0   101     0  8.0284311392e+00 -4.7269487525e+01  2.3849464294e+01  5.3765203474e+01  4.8000000000e+00 0. 9.
      -24     2     4     0     0     0 -3.1911825707e+01 -6.0664087033e+01 -5.3940322716e+02  5.4902673593e+02  7.6000126433e+01  2.557388e-13 9.
       -5     1     4     0     0   103  5.4127452088e+01  2.6991690162e+01 -4.7379295748e+02  4.7766215986e+02  4.8000000000e+00 0. 9.
       -1     1     5     0     0   104 -1.7753544725e+01 -8.0132256284e+00 -2.7034420882e+01  3.3322199022e+01  3.3000000000e-01 0. 9.
        4     1     5     0   104     0 -1.2490512796e+01  8.8955110024e+01 -1.1550779020e+01  9.0579771501e+01  1.5000000000e+00 0. 9.
        1     1     7     0   105     0 -5.0724200549e+01 -1.9229597259e+01 -2.3100251059e+02  2.3728672684e+02  3.3000000000e-01 0. 9.
       -2     1     7     0     0   105  1.8812374842e+01 -4.1434489774e+01 -3.0840071657e+02  3.1174000910e+02  3.3000000000e-01 0. 9.
#pdf   21   21  1.357109e-02  1.717145e-01  1.659023e+02  6.381009e+00  3.646374e-01
</event>
<event>
    12  9999  1.000000e+00  1.932302e+02  7.884627e-03  1.061789e-01
       21    -1     0     0   101   102  0.0000000000e+00  0.0000000000e+00  9.6886432472e+01  9.6886432472e+01  0.0000000000e+00 0. 9.
       21    -1     0     0   103   101  0.0000000000e+00  0.0000000000e+00 -4.2447671610e+02  4.2447671610e+02  0.0000000000e+00 0. 9.
        6     2     1     2   103     0  3.1019350667e+01 -8.0713691524e+01 -8.4100021040e+01  2.1004201213e+02  1.7195328786e+02  8.887432e-14 9.
       -6     2     1     2     0   102 -3.1019350667e+01  8.0713691524e+01 -2.4349026259e+02  3.1132113644e+02  1.7365610241e+02  8.125275e-14 9.
       24     2     3     0     0     0 -2.7448610152e+01 -9.7482112016e+01 -4.4299268012e+01  1.3719407249e+02  8.1262537609e+01  1.116205e-13 9.
        5     1     3     0   103     0  5.8467960818e+01  1.6768420491e+01 -3.9800753029e+01  7.2847939639e+01  4.8000000000e+00 0. 9.
      -24     2     4     0     0     0 -6.5588095217e+01  8.3510985861e+01 -2.4217423800e+02  2.7628408639e+02  8.0054055788e+01  6.550282e-14 9.
       -5     1     4     0     0   102  3.4568744551e+01 -2.7972943367e+00 -1.3160245873e+00  3.5037050049e+01  4.8000000000e+00 0. 9.
       -3     1     5     0     0   104 -1.3500465542e+01 -6.4283511634e+01 -6.7614803236e+01  9.4268998374e+01  5.0000000000e-01 0. 9.
        4     1     5     0   104     0 -1.3948144610e+01 -3.3198600382e+01  2.3315535224e+01  4.2925074119e+01  1.5000000000e+00 0. 9.
       15     1     7     0     0     0 -6.1504563575e+01  1.7580980819e+01 -9.0394080813e+01  1.1075264856e+02  1.7768200000e+00  9.975657e-02 9.
      -16     1     7     0     0     0 -4.0835316422e+00  6.5930005042e+01 -1.5178015719e+02  1.6553143783e+02  0.0000000000e+00 0. 9.
#pdf   21   21  1.490560e-02  6.530411e-02  1.924703e+02  5.915049e+00  1.409061e+00
</event>
<event>
    12  9999  1.000000e+00  1.879992e+02  7.882154e-03  1.065352e-01
       21    -1     0     0   101   102  0.0000000000e+00  0.0000000000e+00  1.9278996653e+02  1.9278996653e+02  0.0000000000e+00 0. 9.
       21    -1     0     0   103   101  0.0000000000e+00  0.0000000000e+00 -3.4600375835e+02  3.4600375835e+02  0.0000000000e+00 0. 9.
        6     2     1     2   103     0 -2.0324182327e+01  7.7599544627e+01 -2.6111876271e+02  3.2120477055e+02  1.6898146251e+02  2.314644e-13 9.
       -6     2     1     2     0   102  2.0324182327e+01 -7.7599544627e+01  1.0790497089e+02  2.1758895432e+02  1.7107515479e+02  2.392228e-15 9.
       24     2     3     0     0     0  3.5139112252e+01  3.2074065197e+01 -2.1872662016e+02  2.3772495219e+02  8.0051956015e+01  1.066698e-13 9.
        5     1     3     0   103     0 -5.5463294579e+01  4.5525479430e+01 -4.2392142558e+01  8.3479818360e+01  4.8000000000e+00 0. 9.
      -24     2     4     0     0     0 -5.3489644058e+01 -3.1940644307e+01  7.4807335586e+01  1.2457438768e+02  7.7725760392e+01  1.094036e-13 9.
       -5     1     4     0     0   102  7.3813826385e+01 -4.5658900319e+01  3.3097635308e+01  9.3014566639e+01  4.8000000000e+00 0. 9.
      -11     1     5     0     0     0  1.4294376077e+01  5.6800658776e+01 -1.6413958494e+02  1.7427692724e+02  5.1100000000e-04 0. 9.
       12     1     5     0     0     0  2.0844736175e+01 -2.4726593580e+01 -5.4587035222e+01  6.3448024954e+01  0.0000000000e+00 0. 9.
        3     1     7     0   104     0  4.6036517515e-01 -2.4004327415e+01 -8.0884653249e+00  2.5339552917e+01  5.0000000000e-01 0. 9.
       -4     1     7     0     0   104 -5.3950009233e+01 -7.9363168927e+00  8.2895800911e+01  9.9234834765e+01  1.5000000000e+00 0. 9.
#pdf   21   21  2.965999e-02  5.323135e-02  1.870548e+02  3.235052e+00  1.782417e+00
</event>
<event>
    12  9999  1.000000e+00  1.807886e+02  7.878632e-03  1.070473e-01
       21    -1     0     0   101   102  0.0000000000e+00  0.0000000000e+00  1.8317056927e+01  1.8317056927e+01  0.0000000000e+00 0. 9.
       21    -1     0     0   103   101  0.0000000000e+00  0.0000000000e+00 -2.0669815020e+03  2.0669815020e+03  0.0000000000e+00 0. 9.
        6     2     1     2   103     0  5.7964416853e+01 -2.0229247408e+01 -1.4134853860e+03  1.4250950690e+03  1.7083888111e+02  9.738334e-14 9.
       -6     2     1     2     0   102 -5.7964416853e+01  2.0229247408e+01 -6.3517905909e+02  6.6020348990e+02  1.6925458606e+02  7.398911e-14 9.
       24     2     3     0     0     0  1.2885494029e+01 -2.8826855269e+01 -1.2972109928e+03  1.2999998946e+03  7.9033807222e+01  4.902019e-14 9.
        5     1     3     0   103     0  4.5078922824e+01  8.5976078607e+00 -1.1627439317e+02  1.2509517437e+02  4.8000000000e+00 0. 9.
      -24     2     4     0     0     0 -3.5376661792e+01 -4.3344929615e+01 -4.9438494109e+02  5.0400519822e+02  8.0464145605e+01  1.041811e-15 9.
       -5     1     4     0     0   102 -2.2587755061e+01  6.3574177023e+01 -1.4079411799e+02  1.5619829168e+02  4.8000000000e+00 0. 9.
       -3     1     5     0     0   104  4.5621547490e+01 -1.9846723651e+01 -8.8272878437e+02  8.8412984046e+02  5.0000000000e-01 0. 9.
        2     1     5     0   104     0 -3.2736053461e+01 -8.9801316176e+00 -4.1448220843e+02  4.1587005419e+02  3.3000000000e-01 0. 9.
        1     1     7     0   105     0 -3.8723885016e+01 -6.5015585264e+01 -3.6320280957e+02  3.7100263527e+02  3.3000000000e-01 0. 9.
       -2     1     7     0     0   105  3.3472232241e+00  2.1670655650e+01 -1.3118213152e+02  1.3300256294e+02  3.3000000000e-01 0. 9.
#pdf   21   21  2.818009e-03  3.179972e-01  1.800450e+02  1.969033e+01  8.701342e-02
</event>
<event>
    12  9999  1.000000e+00  2.231979e+02  7.897645e-03  1.043457e-01
       21    -1     0     0   101   102  0.0000000000e+00  0.0000000000e+00  7.0638677241e+01  7.0638677241e+01  0.0000000000e+00 0. 9.
       21    -1     0     0   102   103  0.0000000000e+00  0.0000000000e+00 -1.4029675931e+03  1.4029675931e+03  0.0000000000e+00 0. 9.
        6     2     1     2   101     0  1.4188911654e+02  1.1698228969e+01 -1.4785600652e+02  2.6844572470e+02  1.7300964854e+02  1.019346e-13 9.
       -6     2     1     2     0   103 -1.4188911654e+02 -1.1698228969e+01 -1.1844729093e+03  1.2051605456e+03  1.7078201859e+02  5.813396e-14 9.
       24     2     3     0     0     0  8.9489872475e+01 -1.8843838837e+01 -1.5256221259e+02  2.0742370359e+02  1.0670443553e+02  2.190349e-15 9.
        5     1     3     0   101     0  5.2399244067e+01  3.0542067806e+01  4.7062060646e+00  6.1022021108e+01  4.8000000000e+00 0. 9.
      -24     2     4     0     0     0 -1.4293069711e+02  3.5287319914e+01 -9.8932707399e+02  1.0043779175e+03  9.1282872421e+01  2.825755e-15 9.
       -5     1     4     0     0   103  1.0415805676e+00 -4.6985548882e+01 -1.9514583532e+02  2.0078262807e+02  4.8000000000e+00 0. 9.
      -13     1     5     0     0     0  8.2008710311e+01 -5.7459127421e+01 -9.7548743444e+01  1.3979538048e+02  1.0566000000e-01  1.503541e+05 9.
       14     1     5     0     0     0  7.4811621641e+00  3.8615288584e+01 -5.5013469143e+01  6.7628323112e+01  0.0000000000e+00 0. 9.
        3     1     7     0   104     0 -2.5871673969e+01  4.6882629761e+01 -3.8507606279e+02  3.8878162074e+02  5.0000000000e-01 0. 9.
       -4     1     7     0     0   104 -1.1705902314e+02 -1.1595309847e+01 -6.0425101120e+02  6.1559629681e+02  1.5000000000e+00 0. 9.
#pdf   21   21  1.086749e-02  2.158412e-01  2.223418e+02  7.616635e+00  2.242588e-01
</event>
<event>
    12  9999  1.000000e+00  1.833435e+02  7.879896e-03  1.068630e-01
       21    -1     0     0   101   102  0.0000000000e+00  0.0000000000e+00  1.3016293385e+02  1.3016293385e+02  0.0000000000e+00 0. 9.
       21    -1     0     0   103   101  0.0000000000e+00  0.0000000000e+00 -2.5832128525e+02  2.5832128525e+02  0.0000000000e+00 0. 9.
        6     2     1     2   103     0 -3.7650259131e+01 -6.0547371880e+01 -6.7400390634e+01  1.9654904851e+02  1.7030910005e+02  4.848206e-13 9.
       -6     2     1     2     0   102  3.7650259131e+01  6.0547371880e+01 -6.0757960766e+01  1.9193517059e+02  1.6752329289e+02  8.717120e-14 9.
       24     2     3     0     0     0 -6.7818615263e+01  8.8794278732e+00 -2.2703204849e+01  1.0850878129e+02  8.1120350656e+01  9.407190e-14 9.
        5     1     3     0   103     0  3.0168356133e+01 -6.9426799753e+01 -4.4697185785e+01  8.8040267224e+01  4.8000000000e+00 0. 9.
      -24     2     4     0     0     0  4.5518924682e-01 -7.9693674677e+00  1.6478818263e+01  8.2087199152e+01  8.0018990235e+01  7.398383e-16 9.
       -5     1     4     0     0   102  3.7195069884e+01  6.8516739348e+01 -7.7236779030e+01  1.0984797144e+02  4.8000000000e+00 0. 9.
       -1     1     5     0     0   104 -4.9384452917e+01 -3.3570190286e+01 -1.0321892170e+01  6.0600595902e+01  3.3000000000e-01 0. 9.
        2     1     5     0   104     0 -1.8434162346e+01  4.2449618159e+01 -1.2381312679e+01  4.7908185386e+01  3.3000000000e-01 0. 9.
        3     1     7     0   105     0 -2.2485467563e+01  2.8990885132e+01  1.0402531480e+01  3.8138305330e+01  5.0000000000e-01 0. 9.
       -4     1     7     0     0   105  2.2940656810e+01 -3.6960252599e+01  6.0762867834e+00  4.3948893822e+01  1.5000000000e+00 0. 9.
#pdf   21   21  2.002507e-02  3.974174e-02  1.820648e+02  4.616012e+00  2.432202e+00
</event>
<event>
    12  9999  1.000000e+00  2.399987e+02  7.904214e-03  1.034471e-01
       21    -1     0     0   101   102  0.0000000000e+00  0.0000000000e+00  2.8069316123e+02  2.8069316123e+02  0.0000000000e+00 0. 9.
       21    -1     0     0   102   103  0.0000000000e+00  0.0000000000e+00 -2.6358596191e+02  2.6358596191e+02  0.0000000000e+00 0. 9.
        6     2     1     2   101     0 -1.2769729921e+02 -1.0973153763e+02  1.3661329528e+02  2.7567615927e+02  1.7025434433e+02  1.382508e-13 9.
       -6     2     1     2     0   103  1.2769729921e+02  1.0973153763e+02 -1.1950609595e+02  2.6860296388e+02  1.7180871531e+02  6.180804e-14 9.
       24     2     3     0     0     0 -8.8479412793e+01  3.8752683064e+00  6.5095343551e+01  1.3573900769e+02  7.9649546548e+01  9.733029e-16 9.
        5     1     3     0   101     0 -3.9217886413e+01 -1.1360680594e+02  7.1517951730e+01  1.3993715157e+02  4.8000000000e+00 0. 9.
      -24     2     4     0     0     0  6.4737476115e+01  1.2702819835e+02 -1.1113481374e+02  2.0260120510e+02  9.1483318108e+01  2.463090e-14 9.
       -5     1     4     0     0   103  6.2959823091e+01 -1.7296660718e+01 -8.3712822090e+00  6.6001758775e+01  4.8000000000e+00 0. 9.
       -1     1     5     0     0   104 -3.6357480927e+01  7.8966763691e-01 -1.5642097309e+01  3.9588812846e+01  3.3000000000e-01 0. 9.
        2     1     5     0   104     0 -5.2121931866e+01  3.0856006695e+00  8.0737440859e+01  9.6150194849e+01  3.3000000000e-01 0. 9.
        1     1     7     0   105     0 -1.3389274054e+01  8.3453854345e+00  7.5227774384e+00  1.7481967799e+01  3.3000000000e-01 0. 9.
       -2     1     7     0     0   105  7.8126750168e+01  1.1868281292e+02 -1.1865759118e+02  1.8511923730e+02  3.3000000000e-01 0. 9.
#pdf   21   21  4.318356e-02  4.055169e-02  2.394455e+02  2.199103e+00  2.348319e+00
</event>
<event>
    12  9999  1.000000e+00  2.245647e+02  7.898197e-03  1.042695e-01
       21    -1     0     0   101   102  0.0000000000e+00  0.0000000000e+00  3.2993808013e+01  3.2993808013e+01  0.0000000000e+00 0. 9.
       21    -1     0     0   103   101  0.0000000000e+00  0.0000000000e+00 -2.2603488562e+03  2.2603488562e+03  0.0000000000e+00 0. 9.
        6     2     1     2   103     0 -1.3985899286e+02 -3.7088997518e+01 -1.7663646986e+03  1.7805895769e+03  1.7181053899e+02  2.179717e-14 9.
       -6     2     1     2     0   102  1.3985899286e+02  3.7088997518e+01 -4.6099034960e+02  5.1275308732e+02  1.7166098715e+02  2.401715e-13 9.
       24     2     3     0     0     0 -5.0467029956e+01 -4.9258599186e+01 -5.0968343169e+02  5.2066502804e+02  7.9633787915e+01  7.128545e-14 9.
        5     1     3     0   103     0 -8.9391962908e+01  1.2169601668e+01 -1.2566812669e+03  1.2599245489e+03  4.8000000000e+00 0. 9.
      -24     2     4     0     0     0  3.2105373507e+01 -2.2366018111e+01 -1.3824171933e+02  1.6730343873e+02  8.5724406523e+01  1.210217e-13 9.
       -5     1     4     0     0   102  1.0775361936e+02  5.9455015629e+01 -3.2274863027e+02  3.4544964859e+02  4.8000000000e+00 0. 9.
      -11     1     5     0     0     0  1.0392796203e+01  1.0327214602e+01 -2.8966842011e+01  3.2461354111e+01  5.1100000000e-04 0. 9.
       12     1     5     0     0     0 -6.0859826160e+01 -5.9585813788e+01 -4.8071658968e+02  4.8820367393e+02  0.0000000000e+00 0. 9.
        3     1     7     0   104     0 -2.6405934743e+00 -3.4697260341e+01 -1.2221532887e+02  1.2707363700e+02  5.0000000000e-01 0. 9.
       -4     1     7     0     0   104  3.4745966981e+01  1.2331242230e+01 -1.6026390463e+01  4.0229801735e+01  1.5000000000e+00 0. 9.
#pdf   21   21  5.075970e-03  3.477460e-01  2.245075e+02  1.338210e+01  6.001638e-02
</event>
<event>
    12  9999  1.000000e+00  2.205205e+02  7.896554e-03  1.044967e-01
        1    -1     0     0   101     0  0.0000000000e+00  0.0000000000e+00  5.8321069370e+02  5.8321069370e+02  0.0000000000e+00 0. 9.
       -1    -1     0     0     0   102  0.0000000000e+00  0.0000000000e+00 -9.0957188056e+01  9.0957188056e+01  0.0000000000e+00 0. 9.
        6     2     1     2   101     0  1.1749652190e+02  4.6957991982e+01  1.4190657780e+02  2.5612617452e+02  1.7161775777e+02  3.886697e-13 9.
       -6     2     1     2     0   102 -1.1749652190e+02 -4.6957991982e+01  3.5034692785e+02  4.1804170724e+02  1.8975092482e+02  3.027138e-13 9.
       24     2     3     0     0     0  1.3674589295e+02  6.5544631298e+01  1.4982092976e+02  2.2781224838e+02  8.0352794513e+01  1.059888e-13 9.
        5     1     3     0   101     0 -1.9249371048e+01 -1.8586639316e+01 -7.9143519581e+00  2.8313926145e+01  4.8000000000e+00 0. 9.
      -24     2     4     0     0     0 -1.5140264870e+02 -4.6035027894e+01  2.2362413027e+02  2.8677029099e+02  8.4778902632e+01  3.924675e-14 9.
       -5     1     4     0     0   102  3.3906126797e+01 -9.2296408762e-01  1.2672279758e+02  1.3127141624e+02  4.8000000000e+00 0. 9.
      -11     1     5     0     0     0 -3.8018931135e+00  5.1483385482e-01  3.4539007178e+01  3.4751438276e+01  5.1100000000e-04 0. 9.
       12     1     5     0     0     0  1.4054778606e+02  6.5029797443e+01  1.1528192258e+02  1.9306081010e+02  0.0000000000e+00 0. 9.
       13     1     7     0     0     0 -3.6267297464e+01  5.9630593297e+00  1.1307392228e+02  1.1889742640e+02  1.0566000000e-01  5.614486e+05 9.
      -14     1     7     0     0     0 -1.1513535123e+02 -5.1998087224e+01  1.1055020799e+02  1.6787286459e+02  0.0000000000e+00 0. 9.
#pdf    1   -1  8.972472e-02  1.399341e-02  2.132209e+02  3.630164e-01  4.538587e-01
</event>
<event>
    12  9999  1.000000e+00  2.059942e+02  7.890397e-03  1.053576e-01
       21    -1     0     0   101   102  0.0000000000e+00  0.0000000000e+00  6.7207199714e+01  6.7207199714e+01  0.0000000000e+00 0. 9.
       21    -1     0     0   103   101  0.0000000000e+00  0.0000000000e+00 -6.3856886725e+02  6.3856886725e+02  0.0000000000e+00 0. 9.
        6     2     1     2   103     0 -2.8998090991e+01  1.1218937287e+02 -2.4478553645e+02  3.1818020370e+02  1.6700700135e+02  2.933059e-14 9.
       -6     2     1     2     0   102  2.8998090991e+01 -1.1218937287e+02 -3.2657613108e+02  3.8759586327e+02  1.7364112175e+02  1.437951e-14 9.
       24     2     3     0     0     0  4.2251232787e+01  5.6293656835e+01 -1.6808245610e+02  1.9940647030e+02  8.0975835134e+01  6.704032e-14 9.
        5     1     3     0   103     0 -7.1249323777e+01  5.5895716037e+01 -7.6703080354e+01  1.1877373340e+02  4.8000000000e+00 0. 9.
      -24     2     4     0     0     0  3.8204175150e+01 -6.3159754770e+00 -1.2253059925e+02  1.5748383116e+02  9.1038227017e+01  3.515104e-14 9.
       -5     1     4     0     0   102 -9.2060841592e+00 -1.0587339740e+02 -2.0404553183e+02  2.3011203211e+02  4.8000000000e+00 0. 9.
       -3     1     5     0     0   104  3.9157732227e+00  1.2740229459e+01  6.9229038860e+00  1.5027419100e+01  5.0000000000e-01 0. 9.
        4     1     5     0   104     0  3.8335459564e+01  4.3553427377e+01 -1.7500535999e+02  1.8437905120e+02  1.5000000000e+00 0. 9.
       11     1     7     0     0     0 -2.9321752678e+01 -1.0721823708e+00 -2.3930747372e+01  3.7862850199e+01  5.1100000000e-04 0. 9.
      -12     1     7     0     0     0  6.7525927828e+01 -5.2437931062e+00 -9.8599851881e+01  1.1962098096e+02  0.0000000000e+00 0. 9.
#pdf   21   21  1.033957e-02  9.824136e-02  2.032700e+02  7.913130e+00  8.364215e-01
</event>
<event>
    12  9999  1.000000e+00  2.157422e+02  7.894574e-03  1.047719e-01
       21    -1     0     0   101   102  0.0000000000e+00  0.0000000000e+00  7.1859831454e+02  7.1859831454e+02  0.0000000000e+00 0. 9.
       21    -1     0     0   102   103  0.0000000000e+00  0.0000000000e+00 -6.5823723385e+01  6.5823723385e+01  0.0000000000e+00 0. 9.
        6     2     1     2   101     0 -1.3354688670e+02 -1.3611256775e+01  3.7402084563e+02  4.3114814297e+02  1.6726353745e+02  3.191184e-13 9.
       -6     2     1     2     0   103  1.3354688670e+02  1.3611256775e+01  2.7875374553e+02  3.5327389496e+02  1.7052494525e+02  3.968388e-13 9.
       24     2     3     0     0     0 -1.3348159925e+02 -5.9465760781e+01  3.0911004279e+02  3.5152972723e+02  8.1673842369e+01  1.199808e-13 9.
        5     1     3     0   101     0 -6.5287455559e-02  4.5854504005e+01  6.4910802833e+01  7.9618415737e+01  4.8000000000e+00 0. 9.
      -24     2     4     0     0     0  3.1079428122e+01 -4.2097930665e+01  8.9108004619e+01  1.3058208847e+02  7.9832817327e+01  3.609356e-14 9.
       -5     1     4     0     0   103  1.0246745858e+02  5.5709187440e+01  1.8964574091e+02  2.2269180649e+02  4.8000000000e+00 0. 9.
      -15     1     5     0     0     0 -8.9750790282e+01 -6.1998681282e+01  2.7550722782e+02  2.9632149856e+02  1.7768200000e+00  7.622622e-02 9.
       16     1     5     0     0     0 -4.3730808966e+01  2.5329205017e+00  3.3602814977e+01  5.5208228675e+01  0.0000000000e+00 0. 9.
        3     1     7     0   104     0 -1.4728556032e+01  6.4471261562e+00  5.1504395493e+01  5.3957840520e+01  5.0000000000e-01 0. 9.
       -4     1     7     0     0   104  4.5807984154e+01 -4.8545056821e+01  3.7603609126e+01  7.6624247946e+01  1.5000000000e+00 0. 9.
#pdf   21   21  1.105536e-01  1.012673e-02  2.144694e+02  7.051224e-01  8.044720e+00
</event>
<event>
    12  9999  1.000000e+00  2.383463e+02  7.903588e-03  1.035319e-01
       21    -1     0     0   101   102  0.0000000000e+00  0.0000000000e+00  2.2210482650e+02  2.2210482650e+02  0.0000000000e+00 0. 9.
       21    -1     0     0   102   103  0.0000000000e+00  0.0000000000e+00 -2.6891305010e+02  2.6891305010e+02  0.0000000000e+00 0. 9.
        6     2     1     2   101     0 -9.3534627019e+01  1.3721215177e+02  3.0866956344e+01  2.4027023655e+02  1.7088334189e+02  3.316315e-15 9.
       -6     2     1     2     0   103  9.3534627019e+01 -1.3721215177e+02 -7.7675179940e+01  2.5074764004e+02  1.7107029071e+02  3.766866e-14 9.
       24     2     3     0     0     0 -9.0908336767e+01  7.0666366387e+01 -3.7532219033e+01  1.4468401294e+02  7.9162712836e+01  3.051439e-14 9.
        5     1     3     0   101     0 -2.6262902517e+00  6.6545785379e+01  6.8399175377e+01  9.5586223612e+01  4.8000000000e+00 0. 9.
      -24     2     4     0     0     0 -8.5156941392e+00 -3.0467078860e+01 -5.1165238857e+01  1.0063236562e+02  8.0673610320e+01  3.048002e-13 9.
       -5     1     4     0     0   103  1.0205032116e+02 -1.0674507291e+02 -2.6509941084e+01  1.5011527442e+02  4.8000000000e+00 0. 9.
      -11     1     5     0     0     0  1.2589831840e+00  4.2973398050e+01 -5.9791359302e+00  4.3405622278e+01  5.1100000000e-04 0. 9.
       12     1     5     0     0     0 -9.2167319951e+01  2.7692968337e+01 -3.1553083103e+01  1.0127839066e+02  0.0000000000e+00 0. 9.
       11     1     7     0     0     0  3.0636576175e+01 -3.5474240377e+01 -2.3517055265e+01  5.2441142424e+01  5.1100000000e-04 0. 9.
      -12     1     7     0     0     0 -3.9152270315e+01  5.0071615176e+00 -2.7648183591e+01  4.8191223196e+01  0.0000000000e+00 0. 9.
#pdf   21   21  3.416997e-02  4.137124e-02  2.382793e+02  2.792934e+00  2.300665e+00
</event>
<event>
    12  9999  1.000000e+00  2.133624e+02  7.893571e-03  1.049118e-01
       21    -1     0     0   101   102  0.0000000000e+00  0.0000000000e+00  2.5917449987e+02  2.5917449987e+02  0.0000000000e+00 0. 9.
       21    -1     0     0   103   101  0.0000000000e+00  0.0000000000e+00 -1.9386748485e+02  1.9386748485e+02  0.0000000000e+00 0. 9.
        6     2     1     2   103     0  8.7752834913e+01 -1.0031349590e+02 -3.6755361025e+01  2.1673897557e+02  1.6691755292e+02  3.683003e-14 9.
       -6     2     1     2     0   102 -8.7752834913e+01  1.0031349590e+02  1.0206237604e+02  2.3630300915e+02  1.6631002987e+02  1.325551e-13 9.
       24     2     3     0     0     0  8.5519886362e+01 -8.3689005193e+00 -3.7220526542e+01  1.2464092425e+02  8.2257540336e+01  8.342022e-14 9.
        5     1     3     0   103     0  2.2329485513e+00 -9.1944595379e+01  4.6516551695e-01  9.2098051324e+01  4.8000000000e+00 0. 9.
      -24     2     4     0     0     0 -3.7842992251e+01 -1.8793433978e+00  2.2780023930e+01  9.7583507440e+01  8.6994180494e+01  5.065137e-14 9.
       -5     1     4     0     0   102 -4.9909842662e+01  1.0219283930e+02  7.9282352109e+01  1.3871950171e+02  4.8000000000e+00 0. 9.
       -1     1     5     0     0   104  5.1500325029e+01 -1.3860381460e-01 -6.2851743152e+01  8.1257327093e+01  3.3000000000e-01 0. 9.
        2     1     5     0   104     0  3.4019561333e+01 -8.2302967047e+00  2.5631216610e+01  4.3383597155e+01  3.3000000000e-01 0. 9.
        1     1     7     0   105     0 -4.0178269749e+01 -1.7821796038e+01  4.9612738026e+01  6.6283047972e+01  3.3000000000e-01 0. 9.
       -2     1     7     0     0   105  2.3352774981e+00  1.5942452640e+01 -2.6832714095e+01  3.1300459468e+01  3.3000000000e-01 0. 9.
#pdf   21   21  3.987300e-02  2.982577e-02  2.131253e+02  2.404603e+00  3.202332e+00
</event>
<event>
    12  9999  1.000000e+00  3.518558e+02  7.939026e-03  9.895735e-02
       -2    -1     0     0     0   101  0.0000000000e+00  0.0000000000e+00  1.2523122024e+03  1.2523122024e+03  0.0000000000e+00 0. 9.
        2    -1     0     0   102     0  0.0000000000e+00  0.0000000000e+00 -1.0018816990e+02  1.0018816990e+02  0.0000000000e+00 0. 9.
       -6     2     1     2     0   101  2.9521961511e+02  8.5819733412e+01  6.5340947247e+02  7.4196551987e+02  1.7043839409e+02  5.685217e-13 9.
        6     2     1     2   102     0 -2.9521961511e+02 -8.5819733412e+01  4.9871456002e+02  6.1053485241e+02  1.7180496454e+02  1.645764e-13 9.
      -24     2     3     0     0     0  1.4093758088e+02  9.3054583855e+01  4.5023298100e+02  4.8670287899e+02  7.5149171332e+01  3.630009e-14 9.
       -5     1     3     0     0   101  1.5428203423e+02 -7.2348504437e+00  2.0317649146e+02  2.5526264088e+02  4.8000000000e+00 0. 9.
       24     2     4     0     0     0 -2.0586927464e+02 -8.2560898464e+01  2.3781701025e+02  3.3470034619e+02  7.9176582241e+01  3.986754e-13 9.
        5     1     4     0   102     0 -8.9350340468e+01 -3.2588349478e+00  2.6089754977e+02  2.7583450622e+02  4.8000000000e+00 0. 9.
       11     1     5     0     0     0  1.6299097407e+01  4.6242971689e+01  8.7402868592e+01  1.0021643800e+02  5.1100000000e-04 0. 9.
      -12     1     5     0     0     0  1.2463848348e+02  4.6811612167e+01  3.6283011241e+02  3.8648644099e+02  0.0000000000e+00 0. 9.
       -3     1     7     0     0   103 -7.3130546782e+01 -3.1489471116e+00  1.1873690663e+02  1.3948726013e+02  5.0000000000e-01 0. 9.
        4     1     7     0   103     0 -1.3273872786e+02 -7.9411951352e+01  1.1908010362e+02  1.9521308606e+02  1.5000000000e+00 0. 9.
#pdf   -2    2  1.926634e-01  1.541356e-02  3.515237e+02  2.474531e-02  7.230507e-01
</event>
<event>
    12  9999  1.000000e+00  1.699362e+02  7.873065e-03  1.078772e-01
       21    -1     0     0   101   102  0.0000000000e+00  0.0000000000e+00  4.8456620315e+02  4.8456620315e+02  0.0000000000e+00 0. 9.
       21    -1     0     0   102   103  0.0000000000e+00  0.0000000000e+00 -1.7897243605e+02  1.7897243605e+02  0.0000000000e+00 0. 9.
        6     2     1     2   101     0  7.0735376989e+01  2.5454515695e+01  4.2750122007e+02  4.6632654239e+02  1.7044566597e+02  3.625799e-15 9.
       -6     2     1     2     0   103 -7.0735376989e+01 -2.5454515695e+01 -1.2190745298e+02  1.9721209681e+02  1.3557196654e+02  3.350709e-13 9.
       24     2     3     0     0     0  3.7536798380e+01 -4.7627663280e+01  2.9093736738e+02  3.0784664976e+02  8.0296964390e+01  3.108742e-15 9.
        5     1     3     0   101     0  3.3198578609e+01  7.3082178975e+01  1.3656385269e+02  1.5847989263e+02  4.8000000000e+00 0. 9.
      -24     2     4     0     0     0 -2.3750131184e+01  1.1384335870e+01 -1.0426193428e+02  1.3476917377e+02  8.1231197359e+01  5.511683e-14 9.
       -5     1     4     0     0   103 -4.6985245805e+01 -3.6838851565e+01 -1.7645518693e+01  6.2442923041e+01  4.8000000000e+00 0. 9.
      -13     1     5     0     0     0 -1.7030495584e+01 -1.3583704052e+00  1.3741064733e+02  1.3846869723e+02  1.0566000000e-01  2.792392e+05 9.
       14     1     5     0     0     0  5.4567293964e+01 -4.6269292875e+01  1.5352672005e+02  1.6937795253e+02  0.0000000000e+00 0. 9.
        1     1     7     0   104     0  2.1541912508e+01 -6.5154005435e+00 -7.4194455999e+01  7.7533416278e+01  3.3000000000e-01 0. 9.
       -2     1     7     0     0   104 -4.5292043693e+01  1.7899736414e+01 -3.0067478283e+01  5.7235757493e+01  3.3000000000e-01 0. 9.
#pdf   21   21  7.454865e-02  2.753422e-02  1.550199e+02  1.222749e+00  3.486231e+00
</event>
<event>
    12  9999  1.000000e+00  1.757494e+02  7.876089e-03  1.074205e-01
       21    -1     0     0   101   102  0.0000000000e+00  0.0000000000e+00  7.9406247050e+01  7.9406247050e+01  0.0000000000e+00 0. 9.
       21    -1     0     0   103   101  0.0000000000e+00  0.0000000000e+00 -5.0031093782e+02  5.0031093782e+02  0.0000000000e+00 0. 9.
        6     2     1     2   103     0  3.7261498242e+01  2.1683906226e+01 -3.4799966230e+02  3.9026217803e+02  1.7129562632e+02  8.966030e-14 9.
       -6     2     1     2     0   102 -3.7261498242e+01 -2.1683906226e+01 -7.2905028469e+01  1.8945500684e+02  1.6946812503e+02  3.749589e-14 9.
       24     2     3     0     0     0  2.4650460645e+01  6.7755696617e+01 -2.9678712695e+02  3.2006665170e+02  9.5716159417e+01  2.276028e-13 9.
        5     1     3     0   103     0  1.2611037597e+01 -4.6071790391e+01 -5.1212535349e+01  7.0195526324e+01  4.8000000000e+00 0. 9.
      -24     2     4     0     0     0 -5.6745502135e+01  3.2513627364e+01 -9.6297276938e+00  1.0375901660e+02  7.9975082957e+01  1.801684e-13 9.
       -5     1     4     0     0   102  1.9484003893e+01 -5.4197533589e+01 -6.3275300775e+01  8.5695990239e+01  4.8000000000e+00 0. 9.
       -3     1     5     0     0   104 -3.0533230548e+01  4.4647798462e+01 -1.9114267342e+02  1.9864912705e+02  5.0000000000e-01 0. 9.
        4     1     5     0   104     0  5.5183691192e+01  2.3107898155e+01 -1.0564445353e+02  1.2141752465e+02  1.5000000000e+00 0. 9.
       11     1     7     0     0     0 -8.0776186267e+00  7.5840698257e+00  3.2752526909e+01  3.4575917298e+01  5.1100000000e-04 0. 9.
      -12     1     7     0     0     0 -4.8667883509e+01  2.4929557538e+01 -4.2382254603e+01  6.9183099305e+01  0.0000000000e+00 0. 9.
#pdf   21   21  1.221635e-02  7.697091e-02  1.748658e+02  6.939107e+00  1.164347e+00
</event>
<event>
    12  9999  1.000000e+00  1.878660e+02  7.882090e-03  1.065445e-01
       21    -1     0     0   101   102  0.0000000000e+00  0.0000000000e+00  3.8711123673e+02  3.8711123673e+02  0.0000000000e+00 0. 9.
       21    -1     0     0   103   101  0.0000000000e+00  0.0000000000e+00 -1.9914233816e+02  1.9914233816e+02  0.0000000000e+00 0. 9.
        6     2     1     2   103     0  6.2475061927e+01 -4.6920082647e+01 -1.2173220595e+02  2.2429652002e+02  1.7142220220e+02  8.276004e-14 9.
       -6     2     1     2     0   102 -6.2475061927e+01  4.6920082647e+01  3.0970110453e+02  3.6195705487e+02  1.7027480114e+02  1.305146e-13 9.
       24     2     3     0     0     0 -3.3263488947e+01 -2.9546952846e+01 -5.0672772879e+01  1.0371385629e+02  7.8799441341e+01  1.968618e-14 9.
        5     1     3     0   103     0  9.5738550873e+01 -1.7373129800e+01 -7.1059433075e+01  1.2058266373e+02  4.8000000000e+00 0. 9.
      -24     2     4     0     0     0 -2.1698772831e+01 -2.8780141927e+01  8.8214046285e+01  1.2431701884e+02  7.9836519841e+01  1.904835e-13 9.
       -5     1     4     0     0   102 -4.0776289096e+01  7.5700224574e+01  2.2148705824e+02  2.3764003603e+02  4.8000000000e+00 0. 9.
       -1     1     5     0     0   104 -1.6147076551e+01  2.6968979594e+01 -1.7075965403e+01  3.5773613683e+01  3.3000000000e-01 0. 9.
        2     1     5     0   104     0 -1.7116412396e+01 -5.6515932440e+01 -3.3596807476e+01  6.7940242607e+01  3.3000000000e-01 0. 9.
        3     1     7     0   105     0 -6.2277158346e+00  2.4696927616e+01  5.1951256299e+01  5.7861089769e+01  5.0000000000e-01 0. 9.
       -4     1     7     0     0   105 -1.5471056996e+01 -5.3477069543e+01  3.6262789986e+01  6.6455929073e+01  1.5000000000e+00 0. 9.
#pdf   21   21  5.955557e-02  3.063728e-02  1.873450e+02  1.571193e+00  3.136901e+00
</event>
<event>
    12  9999  1.000000e+00  2.061578e+02  7.890469e-03  1.053475e-01
       21    -1     0     0   101   102  0.0000000000e+00  0.0000000000e+00  4.5934149859e+02  4.5934149859e+02  0.0000000000e+00 0. 9.
       21    -1     0     0   103   101  0.0000000000e+00  0.0000000000e+00 -9.5625277020e+01  9.5625277020e+01  0.0000000000e+00 0. 9.
        6     2     1     2   103     0 -1.1436377176e+02 -1.1660348596e+00  1.3317292062e+02  2.4664836188e+02  1.7326267833e+02  3.215565e-13 9.
       -6     2     1     2     0   102  1.1436377176e+02  1.1660348596e+00  2.3054330095e+02  3.0831841373e+02  1.6979281111e+02  9.996658e-14 9.
       24     2     3     0     0     0 -1.6806822837e+01  2.2690210026e+01  7.6449778839e+00  8.5816825445e+01  8.0676929278e+01  2.248238e-13 9.
        5     1     3     0   103     0 -9.7556948924e+01 -2.3856244885e+01  1.2552794274e+02  1.6083153643e+02  4.8000000000e+00 0. 9.
      -24     2     4     0     0     0  7.1021948541e+01 -6.3323524478e+01  1.5146974069e+02  1.9735407336e+02  8.3376027720e+01  2.263788e-13 9.
       -5     1     4     0     0   102  4.3341823220e+01  6.4489559337e+01  7.9073560258e+01  1.1096434038e+02  4.8000000000e+00 0. 9.
      -15     1     5     0     0     0 -2.4900575145e+00  8.2060817997e+00 -3.6321614413e+01  3.7362506979e+01  1.7768200000e+00  4.595819e-02 9.
       16     1     5     0     0     0 -1.4316765322e+01  1.4484128226e+01  4.3966592296e+01  4.8454318465e+01  0.0000000000e+00 0. 9.
        3     1     7     0   104     0  6.6830443157e+01 -4.0276012505e+01  4.8796239205e+01  9.2031452648e+01  5.0000000000e-01 0. 9.
       -4     1     7     0     0   104  4.1915053846e+00 -2.3047511972e+01  1.0267350149e+02  1.0532262071e+02  1.5000000000e+00 0. 9.
#pdf   21   21  7.066792e-02  1.471158e-02  2.047194e+02  1.275875e+00  5.976787e+00
</event>
<event>
    12  9999  1.000000e+00  1.705383e+02  7.873382e-03  1.078248e-01
       -2    -1     0     0     0   101  0.0000000000e+00  0.0000000000e+00  2.7421252563e+01  2.7421252563e+01  0.0000000000e+00 0. 9.
        2    -1     0     0   102     0  0.0000000000e+00  0.0000000000e+00 -1.4025415629e+03  1.4025415629e+03  0.0000000000e+00 0. 9.
       -6     2     1     2     0   101 -5.2219128837e+00 -3.8482913417e+00 -3.3494066926e+02  3.7591740853e+02  1.7054784780e+02  6.934274e-14 9.
        6     2     1     2   102     0  5.2219128837e+00  3.8482913417e+00 -1.0401796411e+03  1.0540454069e+03  1.7028199098e+02  3.492657e-13 9.
      -24     2     3     0     0     0 -6.8477292542e+01 -2.8584379316e+01 -2.2371373187e+02  2.4550426232e+02  6.8689902113e+01  3.048482e-13 9.
       -5     1     3     0     0   101  6.3255379659e+01  2.4736087974e+01 -1.1122693739e+02  1.3041314621e+02  4.8000000000e+00 0. 9.
       24     2     4     0     0     0  3.7838348710e+00 -5.4942734545e+01 -8.3198350349e+02  8.3764964796e+02  8.0170824969e+01  6.631879e-14 9.
        5     1     4     0   102     0  1.4380780127e+00  5.8791025887e+01 -2.0819613759e+02  2.1639575897e+02  4.8000000000e+00 0. 9.
       11     1     5     0     0     0 -2.5153468886e+01  1.8200026461e+01 -1.1829824757e+02  1.2230459247e+02  5.1100000000e-04 0. 9.
      -12     1     5     0     0     0 -4.3323823656e+01 -4.6784405777e+01 -1.0541548430e+02  1.2319966985e+02  0.0000000000e+00 0. 9.
       -1     1     7     0     0   103 -1.6220052471e+01 -1.7890894799e+01 -6.2355769839e+01  6.6869463518e+01  3.3000000000e-01 0. 9.
        4     1     7     0   103     0  2.0003887342e+01 -3.7051839746e+01 -7.6962773365e+02  7.7078018445e+02  1.5000000000e+00 0. 9.
#pdf   -2    2  4.218654e-03  2.157756e-01  1.704055e+02  8.203643e-01  4.305054e-01
</event>
<event>
    12  9999  1.000000e+00  1.995945e+02  7.887549e-03  1.057612e-01
       21    -1     0     0   101   102  0.0000000000e+00  0.0000000000e+00  1.0601883581e+03  1.0601883581e+03  0.0000000000e+00 0. 9.
       21    -1     0     0   103   101  0.0000000000e+00  0.0000000000e+00 -4.0237434751e+01  4.0237434751e+01  0.0000000000e+00 0. 9.
        6     2     1     2   103     0 -7.6014017657e+01 -7.7006966845e+01  3.7507907788e+02  4.2615587480e+02  1.7092779509e+02  1.868279e-13 9.
       -6     2     1     2     0   102  7.6014017657e+01  7.7006966845e+01  6.4487184545e+02  6.7426991804e+02  1.6453577573e+02  1.406674e-13 9.
       24     2     3     0     0     0 -5.4973430502e+01 -4.5394069451e+01  9.4151594963e+01  1.4263273244e+02  7.9980459663e+01  1.752300e-14 9.
        5     1     3     0   103     0 -2.1040587155e+01 -3.1612897393e+01  2.8092748292e+02  2.8352314235e+02  4.8000000000e+00 0. 9.
      -24     2     4     0     0     0  6.7129488640e+01  9.3597220700e+01  3.5386992502e+02  3.8262059252e+02  8.8925733182e+01  8.631936e-15 9.
       -5     1     4     0     0   102  8.8845290168e+00 -1.6590253855e+01  2.9100192043e+02  2.9164932552e+02  4.8000000000e+00 0. 9.
      -11     1     5     0     0     0 -1.3956612759e+01 -5.1122867459e+01  1.8034831166e+01  5.5978475796e+01  5.1100000000e-04 0. 9.
       12     1     5     0     0     0 -4.1016817743e+01  5.7287980078e+00  7.6116763797e+01  8.6654256648e+01  0.0000000000e+00 0. 9.
        1     1     7     0   104     0  5.2459970434e+01  3.5711740312e+01  2.8260780840e+02  2.8964574770e+02  3.3000000000e-01 0. 9.
       -2     1     7     0     0   104  1.4669518207e+01  5.7885480388e+01  7.1262116618e+01  9.2974844819e+01  3.3000000000e-01 0. 9.
#pdf   21   21  1.631059e-01  6.190375e-03  1.969270e+02  3.885178e-01  1.157821e+01
</event>
<event>
    12  9999  1.000000e+00  1.803879e+02  7.878433e-03  1.070765e-01
       21    -1     0     0   101   102  0.0000000000e+00  0.0000000000e+00  5.4957810363e+02  5.4957810363e+02  0.0000000000e+00 0. 9.
       21    -1     0     0   102   103  0.0000000000e+00  0.0000000000e+00 -1.1047006686e+02  1.1047006686e+02  0.0000000000e+00 0. 9.
        6     2     1     2   101     0 -5.4773880407e+01 -2.5483535440e+01  4.4163432592e+02  4.7555819635e+02  1.6572607438e+02  2.427627e-14 9.
       -6     2     1     2     0   103  5.4773880407e+01  2.5483535440e+01 -2.5262891468e+00  1.8448997415e+02  1.7430025781e+02  1.150610e-13 9.
       24     2     3     0     0     0  1.1610248248e+00 -4.6818129750e+01  3.7167604494e+02  3.8335689693e+02  8.1401122740e+01  6.809447e-14 9.
        5     1     3     0   101     0 -5.5934905232e+01  2.1334594310e+01  6.9958280974e+01  9.2201299419e+01  4.8000000000e+00 0. 9.
      -24     2     4     0     0     0  3.5911664774e+01  7.1217347344e+01 -4.2733660793e+01  1.2056003230e+02  7.9668044999e+01  1.930380e-13 9.
       -5     1     4     0     0   103  1.8862215633e+01 -4.5733811905e+01  4.0207371646e+01  6.3929941848e+01  4.8000000000e+00 0. 9.
      -11     1     5     0     0     0  1.5907831179e+01 -4.1448757894e-01  1.0849229958e+01  1.9259716605e+01  5.1100000000e-04 0. 9.
       12     1     5     0     0     0 -1.4746806354e+01 -4.6403642171e+01  3.6082681499e+02  3.6409718032e+02  0.0000000000e+00 0. 9.
       11     1     7     0     0     0  3.9242871112e+01  7.0704128876e+01 -3.2469360883e+00  8.0929718691e+01  5.1100000000e-04 0. 9.
      -12     1     7     0     0     0 -3.3312063382e+00  5.1321846798e-01 -3.9486724705e+01  3.9630313609e+01  0.0000000000e+00 0. 9.
#pdf   21   21  8.455048e-02  1.699539e-02  1.763937e+02  1.033796e+00  5.308751e+00
</event>
<event>
    12  9999  1.000000e+00  1.862143e+02  7.881295e-03  1.066597e-01
       21    -1     0     0   101   102  0.0000000000e+00  0.0000000000e+00  1.1530228044e+03  1.1530228044e+03  0.0000000000e+00 0. 9.
       21    -1     0     0   102   103  0.0000000000e+00  0.0000000000e+00 -5.0986508651e+01  5.0986508651e+01  0.0000000000e+00 0. 9.
        6     2     1     2   101     0  5.7561946369e+01 -5.0157481992e+01  9.4032575932e+02  9.5901605657e+02  1.7225014498e+02  3.096013e-15 9.
       -6     2     1     2     0   103 -5.7561946369e+01  5.0157481992e+01  1.6171053638e+02  2.4499325644e+02  1.6745819613e+02  6.668072e-14 9.
       24     2     3     0     0     0  9.1227329876e+01 -7.8018144055e+01  6.5292777841e+02  6.6827525454e+02  7.6602059265e+01  1.589705e-14 9.
        5     1     3     0   101     0 -3.3665383507e+01  2.7860662063e+01  2.8739798091e+02  2.9074080204e+02  4.8000000000e+00 0. 9.
      -24     2     4     0     0     0 -2.3981826564e+01  1.7614334979e+01  9.5842517854e+00  8.5769742692e+01  7.9869882165e+01  1.583459e-15 9.
       -5     1     4     0     0   103 -3.3580119805e+01  3.2543147014e+01  1.5212628460e+02  1.5922351374e+02  4.8000000000e+00 0. 9.
       -3     1     5     0     0   104  8.1513225471e+01 -9.1849577794e+01  5.2147054692e+02  5.3573550580e+02  5.0000000000e-01 0. 9.
        2     1     5     0   104     0  9.7141044048e+00  1.3831433739e+01  1.3145723150e+02  1.3253974874e+02  3.3000000000e-01 0. 9.
        1     1     7     0   105     0  8.1892842992e+00 -2.1700492787e+01 -1.6689471216e+01  2.8576618309e+01  3.3000000000e-01 0. 9.
       -2     1     7     0     0   105 -3.2171110864e+01  3.9314827765e+01  2.6273723001e+01  5.7193124383e+01  3.3000000000e-01 0. 9.
#pdf   21   21  1.773881e-01  7.844078e-03  1.840418e+02  3.387761e-01  9.730859e+00
</event>
<event>
    12  9999  1.000000e+00  1.810314e+02  7.878753e-03  1.070296e-01
       21    -1     0     0   101   102  0.0000000000e+00  0.0000000000e+00  6.0595627441e+02  6.0595627441e+02  0.0000000000e+00 0. 9.
       21    -1     0     0   103   101  0.0000000000e+00  0.0000000000e+00 -1.2355236159e+02  1.2355236159e+02  0.0000000000e+00 0. 9.
        6     2     1     2   103     0  2.8742222363e+01  1.1996105939e+01 -3.7659338344e+01  1.7535964666e+02  1.6841246393e+02  3.367508e-13 9.
       -6     2     1     2     0   102 -2.8742222363e+01 -1.1996105939e+01  5.2006325117e+02  5.5414898934e+02  1.8879961671e+02  7.306712e-15 9.
       24     2     3     0     0     0  2.8136421050e+01  4.3028312509e+00 -9.1240832717e+01  1.2101288953e+02  7.4223024268e+01  2.036613e-13 9.
        5     1     3     0   103     0  6.0580131326e-01  7.6932746881e+00  5.3581494374e+01  5.4346757125e+01  4.8000000000e+00 0. 9.
      -24     2     4     0     0     0  5.2953444278e+00  6.6761884181e+01  3.0315682681e+02  3.2084057996e+02  8.0928525595e+01  8.098345e-15 9.
       -5     1     4     0     0   102 -3.4037566791e+01 -7.8757990120e+01  2.1690642436e+02  2.3330840938e+02  4.8000000000e+00 0. 9.
      -13     1     5     0     0     0 -1.9190516148e+01 -9.1511779547e+00 -5.7629288004e+01  6.1426101682e+01  1.0566000000e-01  2.305877e+05 9.
       14     1     5     0     0     0  4.7326937197e+01  1.3454009206e+01 -3.3611544714e+01  5.9586787850e+01  0.0000000000e+00 0. 9.
       15     1     7     0     0     0  3.2856920426e+01  3.8991923950e+01  8.4481192182e+01  9.8692331389e+01  1.7768200000e+00  8.839005e-02 9.
      -16     1     7     0     0     0 -2.7561575999e+01  2.7769960231e+01  2.1867563463e+02  2.2214824857e+02  0.0000000000e+00 0. 9.
#pdf   21   21  9.322404e-02  1.900806e-02  1.712682e+02  9.129300e-01  4.831283e+00
</event>
<event>
    12  9999  1.000000e+00  2.231453e+02  7.897624e-03  1.043487e-01
       21    -1     0     0   101   102  0.0000000000e+00  0.0000000000e+00  2.1830811718e+02  2.1830811718e+02  0.0000000000e+00 0. 9.
       21    -1     0     0   102   103  0.0000000000e+00  0.0000000000e+00 -2.3057140053e+02  2.3057140053e+02  0.0000000000e+00 0. 9.
        6     2     1     2   101     0 -1.4064066732e+02  2.6552176679e+01 -2.9415682842e+01  2.2504619804e+02  1.7115984769e+02  2.313344e-14 9.
       -6     2     1     2     0   103  1.4064066732e+02 -2.6552176679e+01  1.7152399495e+01  2.2383331967e+02  1.7123765589e+02  4.701665e-14 9.
       24     2     3     0     0     0 -4.5476059972e+01 -4.5292728851e+01 -2.1703382969e+01  1.0546144771e+02  8.0818171240e+01  1.562020e-13 9.
        5     1     3     0   101     0 -9.5164607350e+01  7.1844905529e+01 -7.7122998729e+00  1.1958475033e+02  4.8000000000e+00 0. 9.
      -24     2     4     0     0     0  2.6041669958e+01 -5.7187637667e+01  2.4766089821e+01  1.0486916563e+02  8.0222118015e+01  4.977176e-14 9.
       -5     1     4     0     0   103  1.1459899736e+02  3.0635460988e+01 -7.6136903258e+00  1.1896415404e+02  4.8000000000e+00 0. 9.
       -1     1     5     0     0   104 -2.6957398523e+01 -2.4960684276e+01 -5.2559087299e+01  6.4127245788e+01  3.3000000000e-01 0. 9.
        2     1     5     0   104     0 -1.8518661449e+01 -2.0332044575e+01  3.0855704330e+01  4.1334201918e+01  3.3000000000e-01 0. 9.
       11     1     7     0     0     0  1.7279089816e+01  6.2656574939e+00 -1.9661439033e+01  2.6914635309e+01  5.1100000000e-04 0. 9.
      -12     1     7     0     0     0  8.7625801420e+00 -6.3453295161e+01  4.4427528854e+01  7.7954530321e+01  0.0000000000e+00 0. 9.
#pdf   21   21  3.358586e-02  3.547252e-02  2.231155e+02  2.849387e+00  2.699515e+00
</event>
<event>
    12  9999  1.000000e+00  2.140660e+02  7.893869e-03  1.048703e-01
       21    -1     0     0   101   102  0.0000000000e+00  0.0000000000e+00  5.3639893394e+02  5.3639893394e+02  0.0000000000e+00 0. 9.
       21    -1     0     0   102   103  0.0000000000e+00  0.0000000000e+00 -1.0662621962e+02  1.0662621962e+02  0.0000000000e+00 0. 9.
        6     2     1     2   101     0  1.1159732226e+02 -6.3915693741e+01  3.5795039953e+02  4.1689414787e+02  1.7068410518e+02  1.884597e-13 9.
       -6     2     1     2     0   103 -1.1159732226e+02  6.3915693741e+01  7.1822314790e+01  2.2613100569e+02  1.7157391582e+02  5.870751e-14 9.
       24     2     3     0     0     0  1.4644183808e+02 -5.4925199859e+01  2.7585524743e+02  3.2712988292e+02  8.0348324476e+01  1.051243e-14 9.
        5     1     3     0   101     0 -3.4844515821e+01 -8.9904938823e+00  8.2095152099e+01  8.9764264945e+01  4.8000000000e+00 0. 9.
      -24     2     4     0     0     0 -1.2543670815e+02  8.8808189714e+01  8.7954568613e+01  1.9304846390e+02  7.6879392330e+01  2.367240e-13 9.
       -5     1     4     0     0   103  1.3839385889e+01 -2.4892495973e+01 -1.6132253824e+01  3.3082541785e+01  4.8000000000e+00 0. 9.
       -1     1     5     0     0   104  1.0471958664e+02  3.1626692104e-01  1.8887309111e+02  2.1596167553e+02  3.3000000000e-01 0. 9.
        2     1     5     0   104     0  4.1722251436e+01 -5.5241466780e+01  8.6982156314e+01  1.1116820739e+02  3.3000000000e-01 0. 9.
       13     1     7     0     0     0 -5.4907557674e+01  5.2769301686e+01  2.0193169625e+00  7.6180889304e+01  1.0566000000e-01  8.676902e+04 9.
      -14     1     7     0     0     0 -7.0529150474e+01  3.6038888028e+01  8.5935251651e+01  1.1686757460e+02  0.0000000000e+00 0. 9.
#pdf   21   21  8.252291e-02  1.640403e-02  2.137107e+02  1.047763e+00  5.458243e+00
</event>
<event>
    12  9999  1.000000e+00  1.876189e+02  7.881972e-03  1.065616e-01
       21    -1     0     0   101   102  0.0000000000e+00  0.0000000000e+00  5.0213321951e+02  5.0213321951e+02  0.0000000000e+00 0. 9.
       21    -1     0     0   102   103  0.0000000000e+00  0.0000000000e+00 -1.0089897423e+02  1.0089897423e+02  0.0000000000e+00 0. 9.
        6     2     1     2   101     0 -6.6966251821e+01  3.8578908046e+01  3.6736507961e+02  4.1260664841e+02  1.7121429138e+02  2.171646e-13 9.
       -6     2     1     2     0   103  6.6966251821e+01 -3.8578908046e+01  3.3869165683e+01  1.9042554533e+02  1.7071015465e+02  1.667961e-13 9.
       24     2     3     0     0     0  5.6992240788e-01  1.2970476727e+01  3.1280159820e+02  3.2195820614e+02  7.5124487244e+01  1.522156e-13 9.
        5     1     3     0   101     0 -6.7536174229e+01  2.5608431319e+01  5.4563481403e+01  9.0648442275e+01  4.8000000000e+00 0. 9.
      -24     2     4     0     0     0  8.9845773521e+00 -8.1221909500e+01  1.4910136454e+01  1.1584146568e+02  8.0741636033e+01  1.894147e-14 9.
       -5     1     4     0     0   103  5.7981674469e+01  4.2643001454e+01  1.8959029230e+01  7.4584079645e+01  4.8000000000e+00 0. 9.
       -3     1     5     0     0   104 -1.8341886939e+01  3.7761777075e+01  1.3307381648e+02  1.3953948279e+02  5.0000000000e-01 0. 9.
        4     1     5     0   104     0  1.8911809347e+01 -2.4791300348e+01  1.7972778173e+02  1.8241872335e+02  1.5000000000e+00 0. 9.
       13     1     7     0     0     0  4.1819818565e+01 -5.3131100584e+01  2.3880707660e+01  7.1708510209e+01  1.0566000000e-01  4.101095e+05 9.
      -14     1     7     0     0     0 -3.2835241213e+01 -2.8090808916e+01 -8.9705712062e+00  4.4132955473e+01  0.0000000000e+00 0. 9.
#pdf   21   21  7.725126e-02  1.552292e-02  1.873893e+02  1.152331e+00  5.721626e+00
</event>
<event>
    12  9999  1.000000e+00  3.025797e+02  7.925261e-03  1.006799e-01
       21    -1     0     0   101   102  0.0000000000e+00  0.0000000000e+00  1.7589053879e+02  1.7589053879e+02  0.0000000000e+00 0. 9.
       21    -1     0     0   102   103  0.0000000000e+00  0.0000000000e+00 -7.6514205008e+02  7.6514205008e+02  0.0000000000e+00 0. 9.
        6     2     1     2   101     0 -6.3682741589e+01  2.4051598028e+02 -5.6077766590e+02  6.3727992802e+02  1.7248387677e+02  6.464653e-14 9.
       -6     2     1     2     0   103  6.3682741589e+01 -2.4051598028e+02 -2.8473845387e+01  3.0375266084e+02  1.7190547039e+02  2.043392e-14 9.
       24     2     3     0     0     0 -1.8477612825e+01  2.2286718364e+02 -3.6445517876e+02  4.3499166181e+02  7.9868421821e+01  1.551507e-14 9.
        5     1     3     0   101     0 -4.5205128764e+01  1.7648796641e+01 -1.9632248714e+02  2.0228826621e+02  4.8000000000e+00 0. 9.
      -24     2     4     0     0     0  3.6160912324e+01 -9.2285986591e+01  4.6467609105e+01  1.3532213001e+02  7.9552028721e+01  8.589686e-14 9.
       -5     1     4     0     0   103  2.7521829265e+01 -1.4822999369e+02 -7.4941454491e+01  1.6843053083e+02  4.8000000000e+00 0. 9.
      -11     1     5     0     0     0  2.3721292207e+01  1.5807152086e+02 -2.3523495746e+02  2.8440251515e+02  5.1100000000e-04 0. 9.
       12     1     5     0     0     0 -4.2198905032e+01  6.4795662776e+01 -1.2922022130e+02  1.5058914666e+02  0.0000000000e+00 0. 9.
        3     1     7     0   104     0  4.8761111522e+01 -7.2993756872e+01  5.0823610597e+00  8.7930739410e+01  5.0000000000e-01 0. 9.
       -4     1     7     0     0   104 -1.2600199198e+01 -1.9292229718e+01  4.1385248045e+01  4.7391390601e+01  1.5000000000e+00 0. 9.
#pdf   21   21  2.706008e-02  1.177142e-01  3.024151e+02  3.466669e+00  6.184499e-01
</event>
<event>
    12  9999  1.000000e+00  1.946049e+02  7.885266e-03  1.060872e-01
       21    -1     0     0   101   102  0.0000000000e+00  0.0000000000e+00  1.0689343426e+03  1.0689343426e+03  0.0000000000e+00 0. 9.
       21    -1     0     0   102   103  0.0000000000e+00  0.0000000000e+00 -7.6453555757e+01  7.6453555757e+01  0.0000000000e+00 0. 9.
        6     2     1     2   101     0 -4.9351065615e+01  7.8762606965e+01  9.1656665082e+02  9.3714197276e+02  1.7176022755e+02  6.898735e-14 9.
       -6     2     1     2     0   103  4.9351065615e+01 -7.8762606965e+01  7.5914135992e+01  2.0824592557e+02  1.7018911111e+02  1.770786e-14 9.
       24     2     3     0     0     0 -6.1700493303e+01  1.0012158614e+02  8.8710595035e+02  8.9841617737e+02  7.9770782477e+01  5.570167e-15 9.
        5     1     3     0   101     0  1.2349427689e+01 -2.1358979177e+01  2.9460700479e+01  3.8725795388e+01  4.8000000000e+00 0. 9.
      -24     2     4     0     0     0  9.3940067205e+01 -4.6148948756e+01  2.7579649489e+01  1.3468579812e+02  8.0157129767e+01  8.477777e-14 9.
       -5     1     4     0     0   103 -4.4589001591e+01 -3.2613658209e+01  4.8334486503e+01  7.3560127448e+01  4.8000000000e+00 0. 9.
       -3     1     5     0     0   104 -3.5675321119e+01  1.2950327370e+01  1.1817747495e+02  1.2412334632e+02  5.0000000000e-01 0. 9.
        4     1     5     0   104     0 -2.6025172185e+01  8.7171258771e+01  7.6892847540e+02  7.7429283105e+02  1.5000000000e+00 0. 9.
       15     1     7     0     0     0  2.1520023549e+01 -9.6971843767e+00  4.5828849608e+01  5.1580881575e+01  1.7768200000e+00  6.905909e-02 9.
      -16     1     7     0     0     0  7.2420043657e+01 -3.6451764379e+01 -1.8249200119e+01  8.3104916549e+01  0.0000000000e+00 0. 9.
#pdf   21   21  1.644514e-01  1.176209e-02  1.939160e+02  3.839508e-01  7.154310e+00
</event>
<event>
    12  9999  1.000000e+00  2.265367e+02  7.898988e-03  1.041606e-01
       21    -1     0     0   101   102  0.0000000000e+00  0.0000000000e+00  1.5371814192e+03  1.5371814192e+03  0.0000000000e+00 0. 9.
       21    -1     0     0   103   101  0.0000000000e+00  0.0000000000e+00 -3.3424205574e+01  3.3424205574e+01  0.0000000000e+00 0. 9.
        6     2     1     2   103     0 -1.4706409306e+02  2.2334537371e+01  7.7878033925e+02  8.1106195236e+02  1.7086835500e+02  2.145771e-13 9.
       -6     2     1     2     0   102  1.4706409306e+02 -2.2334537371e+01  7.2497687440e+02  7.5954367244e+02  1.7084625515e+02  2.304185e-13 9.
       24     2     3     0     0     0 -7.4781590590e+01  1.3743682691e+01  2.0812611181e+02  2.3576389897e+02  8.0541681959e+01  1.026142e-13 9.
        5     1     3     0   103     0 -7.2282502466e+01  8.5908546795e+00  5.7065422743e+02  5.7529805339e+02  4.8000000000e+00 0. 9.
      -24     2     4     0     0     0  6.7110426694e+01  8.8301721823e+00  1.8389993939e+02  2.1168318154e+02  8.0054983151e+01  2.127990e-14 9.
       -5     1     4     0     0   102  7.9953666362e+01 -3.1164709553e+01  5.4107693501e+02  5.4786049090e+02  4.8000000000e+00 0. 9.
       -3     1     5     0     0   104 -4.8006586513e+01 -1.0457134793e+01  3.8743257572e+01  6.2572150547e+01  5.0000000000e-01 0. 9.
        4     1     5     0   104     0 -2.6775004077e+01  2.4200817484e+01  1.6938285424e+02  1.7319174842e+02  1.5000000000e+00 0. 9.
       11     1     7     0     0     0 -1.1621274537e+01 -1.7674634691e+01  4.7153812817e+01  5.1681029370e+01  5.1100000000e-04 0. 9.
      -12     1     7     0     0     0  7.8731701231e+01  2.6504806874e+01  1.3674612658e+02  1.6000215217e+02  0.0000000000e+00 0. 9.
#pdf   21   21  2.364894e-01  5.142185e-03  2.265284e+02  1.829830e-01  1.326461e+01
</event>
<event>
    12  9999  1.000000e+00  1.907556e+02  7.883465e-03  1.063459e-01
       21    -1     0     0   101   102  0.0000000000e+00  0.0000000000e+00  7.6687054885e+01  7.6687054885e+01  0.0000000000e+00 0. 9.
       21    -1     0     0   102   103  0.0000000000e+00  0.0000000000e+00 -4.9084072963e+02  4.9084072963e+02  0.0000000000e+00 0. 9.
        6     2     1     2   101     0  4.8330616309e+01  5.9679406288e+01 -1.5693615689e+02  2.4819348758e+02  1.7627696937e+02  3.435762e-14 9.
       -6     2     1     2     0   103 -4.8330616309e+01 -5.9679406288e+01 -2.5721751785e+02  3.1933429693e+02  1.7296260202e+02  2.025016e-13 9.
       24     2     3     0     0     0  3.6750547325e+01  1.7427262506e+01 -1.7801111998e+02  1.9934130523e+02  7.9966773875e+01  8.030624e-14 9.
        5     1     3     0   101     0  1.1580068983e+01  4.2252143782e+01  2.1074963092e+01  4.8852182358e+01  4.8000000000e+00 0. 9.
      -24     2     4     0     0     0 -6.9591424666e+01  1.7855306431e+01 -1.4030897305e+02  1.7736845070e+02  8.1309169409e+01  6.933652e-14 9.
       -5     1     4     0     0   103  2.1260808357e+01 -7.7534712718e+01 -1.1690854480e+02  1.4196584623e+02  4.8000000000e+00 0. 9.
       -1     1     5     0     0   104  1.7743754201e-01  3.7308930893e+01 -3.7928729729e+01  5.3204184491e+01  3.3000000000e-01 0. 9.
        2     1     5     0   104     0  3.6573109783e+01 -1.9881668388e+01 -1.4008239026e+02  1.4613712073e+02  3.3000000000e-01 0. 9.
        3     1     7     0   105     0 -6.5705760882e+01  2.1147010252e-01 -1.4452059012e+02  1.5875686662e+02  5.0000000000e-01 0. 9.
       -4     1     7     0     0   105 -3.8856637836e+00  1.7643836328e+01  4.2116170669e+00  1.8611584074e+01  1.5000000000e+00 0. 9.
#pdf   21   21  1.179801e-02  7.551396e-02  1.892447e+02  7.136154e+00  1.184271e+00
</event>
<event>
    12  9999  1.000000e+00  1.736187e+02  7.874992e-03  1.075824e-01
       21    -1     0     0   101   102  0.0000000000e+00  0.0000000000e+00  1.2511936741e+02  1.2511936741e+02  0.0000000000e+00 0. 9.
       21    -1     0     0   103   101  0.0000000000e+00  0.0000000000e+00 -2.7517689223e+02  2.7517689223e+02  0.0000000000e+00 0. 9.
        6     2     1     2   103     0 -3.8825371153e+01  2.9175325477e+00 -4.4368558809e+00  1.7375241910e+02  1.6927579866e+02  1.198940e-13 9.
       -6     2     1     2     0   102  3.8825371153e+01 -2.9175325477e+00 -1.4562066894e+02  2.2654384054e+02  1.6911774308e+02  1.917389e-14 9.
       24     2     3     0     0     0 -6.1175204632e+01 -7.5230226869e+00  5.1578060068e+01  1.1235835539e+02  7.8518164859e+01  2.231814e-13 9.
        5     1     3     0   103     0  2.2349833479e+01  1.0440555235e+01 -5.6014915949e+01  6.1394063710e+01  4.8000000000e+00 0. 9.
      -24     2     4     0     0     0  5.8035673229e+01 -5.0038310529e+01 -1.3453550725e+02  1.7424351327e+02  7.9931391316e+01  6.903363e-14 9.
       -5     1     4     0     0   102 -1.9210302075e+01  4.7120777982e+01 -1.1085161699e+01  5.2300327277e+01  4.8000000000e+00 0. 9.
       -1     1     5     0     0   104 -3.9589954870e-01 -2.5616373390e+01  4.0585875939e+01  4.7996641006e+01  3.3000000000e-01 0. 9.
        2     1     5     0   104     0 -6.0779305083e+01  1.8093350703e+01  1.0992184128e+01  6.4361714381e+01  3.3000000000e-01 0. 9.
        3     1     7     0   105     0 -1.0737055684e+00 -6.2963051637e+00  1.0112029772e+01  1.1970774765e+01  5.0000000000e-01 0. 9.
       -4     1     7     0     0   105  5.9109378797e+01 -4.3742005366e+01 -1.4464753702e+02  1.6227273850e+02  1.5000000000e+00 0. 9.
#pdf   21   21  1.924913e-02  4.233491e-02  1.735417e+02  4.778814e+00  2.285192e+00
</event>
<event>
    12  9999  1.000000e+00  1.918090e+02  7.883962e-03  1.062745e-01
       21    -1     0     0   101   102  0.0000000000e+00  0.0000000000e+00  9.1037049134e+01  9.1037049134e+01  0.0000000000e+00 0. 9.
       21    -1     0     0   103   101  0.0000000000e+00  0.0000000000e+00 -5.3659169746e+02  5.3659169746e+02  0.0000000000e+00 0. 9.
        6     2     1     2   103     0  8.3336516641e+01 -2.1735039619e+01 -3.7761884114e+02  4.2299237716e+02  1.7002698315e+02  9.305873e-14 9.
       -6     2     1     2     0   102 -8.3336516641e+01  2.1735039619e+01 -6.7935807186e+01  2.0463636943e+02  1.7275237435e+02  1.692227e-13 9.
       24     2     3     0     0     0  7.1417564595e+01 -6.6717996490e+01 -1.8080566660e+02  2.2069558159e+02  8.0399571327e+01  2.063538e-14 9.
        5     1     3     0   103     0  1.1918952046e+01  4.4982956871e+01 -1.9681317453e+02  2.0229679557e+02  4.8000000000e+00 0. 9.
      -24     2     4     0     0     0 -5.2330933124e+01  1.4931494362e+01  2.9254665429e+01  1.0228080092e+02  8.1511046509e+01  2.281417e-14 9.
       -5     1     4     0     0   102 -3.1005583517e+01  6.8035452570e+00 -9.7190472615e+01  1.0235556851e+02  4.8000000000e+00 0. 9.
       -3     1     5     0     0   104  8.7516198419e+01 -4.3156076723e+01 -1.3220730582e+02  1.6431845197e+02  5.0000000000e-01 0. 9.
        4     1     5     0   104     0 -1.6098633824e+01 -2.3561919768e+01 -4.8598360778e+01  5.6377129622e+01  1.5000000000e+00 0. 9.
       15     1     7     0     0     0 -4.5310302626e+01 -1.0458842318e+01  5.0328344284e+01  6.8545679910e+01  1.7768200000e+00  1.499333e-01 9.
      -16     1     7     0     0     0 -7.0206304982e+00  2.5390336680e+01 -2.1073678856e+01  3.3735121014e+01  0.0000000000e+00 0. 9.
#pdf   21   21  1.400570e-02  8.255257e-02  1.905953e+02  6.223250e+00  1.058422e+00
</event>
<event>
    12  9999  1.000000e+00  1.763707e+02  7.876406e-03  1.073738e-01
       21    -1     0     0   101   102  0.0000000000e+00  0.0000000000e+00  6.5965813294e+02  6.5965813294e+02  0.0000000000e+00 0. 9.
       21    -1     0     0   102   103  0.0000000000e+00  0.0000000000e+00 -4.7820601665e+01  4.7820601665e+01  0.0000000000e+00 0. 9.
        6     2     1     2   101     0 -3.9194972829e+01  1.2463540512e+01  2.6437106598e+02  3.1785602860e+02  1.7160655189e+02  4.047919e-13 9.
       -6     2     1     2     0   103  3.9194972829e+01 -1.2463540512e+01  3.4746646530e+02  3.8962270601e+02  1.7140980950e+02  5.134445e-14 9.
       24     2     3     0     0     0 -1.9099177171e+01  4.5100906787e+01  2.5502121093e+02  2.7811312395e+02  9.9560139242e+01  3.295095e-14 9.
        5     1     3     0   101     0 -2.0095795657e+01 -3.2637366276e+01  9.3498550458e+00  3.9742904649e+01  4.8000000000e+00 0. 9.
      -24     2     4     0     0     0 -1.1274686724e+01 -4.7832806892e+01  1.4131734742e+02  1.7440497825e+02  8.9618121943e+01  6.888608e-14 9.
       -5     1     4     0     0   103  5.0469659552e+01  3.5369266380e+01  2.0614911788e+02  2.1521772776e+02  4.8000000000e+00 0. 9.
       -1     1     5     0     0   104 -5.4831577047e+01  2.1416596667e+00  1.3475477330e+02  1.4549930026e+02  3.3000000000e-01 0. 9.
        2     1     5     0   104     0  3.5732399876e+01  4.2959247121e+01  1.2026643763e+02  1.3261382369e+02  3.3000000000e-01 0. 9.
       15     1     7     0     0     0 -3.5710062170e+01 -2.7729047569e+01  2.0792283588e+01  4.9795429162e+01  1.7768200000e+00  1.150306e-02 9.
      -16     1     7     0     0     0  2.4435375446e+01 -2.0103759322e+01  1.2052506383e+02  1.2460954909e+02  0.0000000000e+00 0. 9.
#pdf   21   21  1.014859e-01  7.357016e-03  1.762751e+02  8.119991e-01  1.018701e+01
</event>
<event>
    12  9999  1.000000e+00  2.096319e+02  7.891978e-03  1.051351e-01
       21    -1     0     0   101   102  0.0000000000e+00  0.0000000000e+00  1.5713876236e+02  1.5713876236e+02  0.0000000000e+00 0. 9.
       21    -1     0     0   102   103  0.0000000000e+00  0.0000000000e+00 -5.1310256179e+02  5.1310256179e+02  0.0000000000e+00 0. 9.
        6     2     1     2   101     0  7.8227608023e+01 -9.4187567809e+01  4.7688313048e+01  2.1576590707e+02  1.7114290773e+02  1.618825e-14 9.
       -6     2     1     2     0   103 -7.8227608023e+01  9.4187567809e+01 -4.0365211247e+02  4.5447541708e+02  1.6918043692e+02  2.216475e-13 9.
       24     2     3     0     0     0  9.3445083165e+01 -1.2455685198e+02  4.6515023445e+01  1.8143980069e+02  8.0686807648e+01  9.276563e-16 9.
        5     1     3     0   101     0 -1.5217475142e+01  3.0369284166e+01  1.1732896031e+00  3.4326106376e+01  4.8000000000e+00 0. 9.
      -24     2     4     0     0     0 -4.5812371343e+01  2.7358793611e+01 -9.0020149794e+01  1.3213261718e+02  8.0672945893e+01  1.391102e-13 9.
       -5     1     4     0     0   103 -3.2415236680e+01  6.6828774198e+01 -3.1363196268e+02  3.2234279990e+02  4.8000000000e+00 0. 9.
       -1     1     5     0     0   104  2.5226726682e+01 -6.5402051273e+01 -1.5636895804e+01  7.1822262984e+01  3.3000000000e-01 0. 9.
        2     1     5     0   104     0  6.8218356483e+01 -5.9154800702e+01  6.2151919249e+01  1.0961753771e+02  3.3000000000e-01 0. 9.
        3     1     7     0   105     0 -3.2354463588e+01 -1.2818364245e+01 -8.1866672740e+01  8.8957989419e+01  5.0000000000e-01 0. 9.
       -4     1     7     0     0   105 -1.3457907755e+01  4.0177157857e+01 -8.1534770549e+00  4.3174627765e+01  1.5000000000e+00 0. 9.
#pdf   21   21  2.417519e-02  7.893886e-02  2.088370e+02  3.894857e+00  1.110890e+00
</event>
<event>
    12  9999  1.000000e+00  1.715521e+02  7.873915e-03  1.077417e-01
       21    -1     0     0   101   102  0.0000000000e+00  0.0000000000e+00  5.3488290854e+01  5.3488290854e+01  0.0000000000e+00 0. 9.
       21    -1     0     0   103   101  0.0000000000e+00  0.0000000000e+00 -7.1545582417e+02  7.1545582417e+02  0.0000000000e+00 0. 9.
        6     2     1     2   103     0 -1.7473487257e+00 -1.8832398984e+01 -5.1619488336e+02  5.4404943110e+02  1.7080665500e+02  5.046837e-14 9.
       -6     2     1     2     0   102  1.7473487257e+00  1.8832398984e+01 -1.4577264996e+02  2.2489468393e+02  1.7020646552e+02  2.363573e-13 9.
       24     2     3     0     0     0 -4.9635220584e+01 -3.0704295947e+01 -4.5297071660e+02  4.6370936966e+02  8.0234035835e+01  1.973452e-14 9.
        5     1     3     0   103     0  4.7887871858e+01  1.1871896963e+01 -6.3224166761e+01  8.0340061435e+01  4.8000000000e+00 0. 9.
      -24     2     4     0     0     0  5.6669699676e+01  6.0523099997e+00 -1.3729034048e+02  1.6766894774e+02  7.7563864836e+01  3.263396e-14 9.
       -5     1     4     0     0   102 -5.4922350950e+01  1.2780088984e+01 -8.4823094768e+00  5.7225736189e+01  4.8000000000e+00 0. 9.
      -11     1     5     0     0     0  1.8354387518e+01 -2.0701532440e+01 -1.8547910523e+02  1.8753115865e+02  5.1100000000e-04 0. 9.
       12     1     5     0     0     0 -6.7989608102e+01 -1.0002763507e+01 -2.6749161137e+02  2.7617821101e+02  0.0000000000e+00 0. 9.
        1     1     7     0   104     0  4.6229851262e+01 -1.0500329465e+01 -2.4828341528e+01  5.3516460175e+01  3.3000000000e-01 0. 9.
       -2     1     7     0     0   104  1.0439848413e+01  1.6552639465e+01 -1.1246199896e+02  1.1415248756e+02  3.3000000000e-01 0. 9.
#pdf   21   21  8.228968e-03  1.100701e-01  1.712541e+02  9.375796e+00  7.275007e-01
</event>
<event>
    12  9999  1.000000e+00  1.930925e+02  7.884563e-03  1.061881e-01
       21    -1     0     0   101   102  0.0000000000e+00  0.0000000000e+00  3.9581030765e+02  3.9581030765e+02  0.0000000000e+00 0. 9.
       21    -1     0     0   103   101  0.0000000000e+00  0.0000000000e+00 -2.0359242085e+02  2.0359242085e+02  0.0000000000e+00 0. 9.
        6     2     1     2   103     0  8.4882562800e+01 -2.7154180860e+01 -1.2344689940e+02  2.2965749227e+02  1.7193320732e+02  7.116848e-14 9.
       -6     2     1     2     0   102 -8.4882562800e+01  2.7154180860e+01  3.1566478620e+02  3.6974523622e+02  1.7066014021e+02  3.532865e-14 9.
       24     2     3     0     0     0  1.0554869606e+01 -5.8888000537e+01 -2.6680329249e+01  1.0348915081e+02  8.0118427891e+01  1.042973e-13 9.
        5     1     3     0   103     0  7.4327693193e+01  3.1733819677e+01 -9.6766570155e+01  1.2616834146e+02  4.8000000000e+00 0. 9.
      -24     2     4     0     0     0  9.1161665372e+00 -1.1714875927e+01  2.0156758869e+02  2.1681461414e+02  7.8477648293e+01  7.264768e-14 9.
       -5     1     4     0     0   102 -9.3998729337e+01  3.8869056788e+01  1.1409719751e+02  1.5293062209e+02  4.8000000000e+00 0. 9.
      -11     1     5     0     0     0  3.5728932051e+01 -7.9364111205e+00  7.2338715999e+00  3.7307802208e+01  5.1100000000e-04 0. 9.
       12     1     5     0     0     0 -2.5174062445e+01 -5.0951589416e+01 -3.3914200849e+01  6.6181348606e+01  0.0000000000e+00 0. 9.
        1     1     7     0   104     0  4.3627818749e+01 -1.8234830743e+00  1.1987706194e+02  1.2758264200e+02  3.3000000000e-01 0. 9.
       -2     1     7     0     0   104 -3.4511652212e+01 -9.8913928531e+00  8.1690526752e+01  8.9231972140e+01  3.3000000000e-01 0. 9.
#pdf   21   21  6.089389e-02  3.132191e-02  1.925287e+02  1.528635e+00  3.068239e+00
</event>
<event>
    12  9999  1.000000e+00  2.374520e+02  7.903248e-03  1.035782e-01
       21    -1     0     0   101   102  0.0000000000e+00  0.0000000000e+00  3.3363633372e+02  3.3363633372e+02  0.0000000000e+00 0. 9.
       21    -1     0     0   103   101  0.0000000000e+00  0.0000000000e+00 -1.9681686640e+02  1.9681686640e+02  0.0000000000e+00 0. 9.
        6     2     1     2   103     0 -7.4244755327e+00  1.5848227513e+02 -3.2190223200e+01  2.3573211690e+02  1.7135246162e+02  1.106825e-14 9.
       -6     2     1     2     0   102  7.4244755327e+00 -1.5848227513e+02  1.6900969052e+02  2.9472108321e+02  1.8200133800e+02  1.101235e-14 9.
       24     2     3     0     0     0  1.9920297883e+01  1.5458867095e+02 -6.9928005466e+01  1.8872066089e+02  8.0194054904e+01  1.358052e-13 9.
        5     1     3     0   103     0 -2.7344773416e+01  3.8936041794e+00  3.7737782266e+01  4.7011456019e+01  4.8000000000e+00 0. 9.
      -24     2     4     0     0     0  4.5049166320e-01 -1.0776511837e+01  1.0793133101e+02  1.3466098524e+02  7.9800204149e+01  3.323570e-16 9.
       -5     1     4     0     0   102  6.9739838695e+00 -1.4770576330e+02  6.1078359509e+01  1.6006009797e+02  4.8000000000e+00 0. 9.
       -1     1     5     0     0   104  1.1393369565e+01  8.6326770793e+01 -8.1138895862e+01  1.1901995441e+02  3.3000000000e-01 0. 9.
        2     1     5     0   104     0  8.5269283184e+00  6.8261900160e+01  1.1210890396e+01  6.9700706478e+01  3.3000000000e-01 0. 9.
        1     1     7     0   105     0  2.3908762578e+01  1.7317932782e+01  1.1794919306e+01  3.1792589471e+01  3.3000000000e-01 0. 9.
       -2     1     7     0     0   105 -2.3458270914e+01 -2.8094444619e+01  9.6136411709e+01  1.0286839577e+02  3.3000000000e-01 0. 9.
#pdf   21   21  5.132867e-02  3.027952e-02  2.335239e+02  1.828277e+00  3.144822e+00
</event>
<event>
    12  9999  1.000000e+00  1.864974e+02  7.881432e-03  1.066398e-01
       21    -1     0     0   101   102  0.0000000000e+00  0.0000000000e+00  6.7105783959e+02  6.7105783959e+02  0.0000000000e+00 0. 9.
       21    -1     0     0   102   103  0.0000000000e+00  0.0000000000e+00 -6.6208296351e+01  6.6208296351e+01  0.0000000000e+00 0. 9.
        6     2     1     2   101     0  5.4261803517e+01  5.4256944670e+01  1.3030704849e+02  2.2729541889e+02  1.6969125257e+02  5.223086e-14 9.
       -6     2     1     2     0   103 -5.4261803517e+01 -5.4256944670e+01  4.7454249475e+02  5.0997071705e+02  1.7026859240e+02  2.323070e-13 9.
       24     2     3     0     0     0 -2.8242660311e+01  5.5059008969e+01  2.0043672389e+01  8.9495992305e+01  6.1470655647e+01  1.285642e-13 9.
        5     1     3     0   101     0  8.2504463828e+01 -8.0206429929e-01  1.1026337610e+02  1.3779942659e+02  4.8000000000e+00 0. 9.
      -24     2     4     0     0     0 -8.8872546373e+01 -2.4944118610e+01  2.2861146737e+02  2.5984623700e+02  8.2075119962e+01  3.009709e-14 9.
       -5     1     4     0     0   103  3.4610742855e+01 -2.9312826060e+01  2.4593102738e+02  2.5012448005e+02  4.8000000000e+00 0. 9.
       -1     1     5     0     0   104 -1.7261168671e+01 -8.9863698998e+00  1.4516562038e+01  2.4280491372e+01  3.3000000000e-01 0. 9.
        2     1     5     0   104     0 -1.0981491640e+01  6.4045378869e+01  5.5271103510e+00  6.5215500933e+01  3.3000000000e-01 0. 9.
       11     1     7     0     0     0 -3.2901538935e+01  3.0386404085e+01  8.5616643759e+01  9.6623260690e+01  5.1100000000e-04 0. 9.
      -12     1     7     0     0     0 -5.5971007438e+01 -5.5330522695e+01  1.4299482361e+02  1.6322297631e+02  0.0000000000e+00 0. 9.
#pdf   21   21  1.032397e-01  1.018589e-02  1.862345e+02  7.885579e-01  7.997456e+00
</event>
<event>
    12  9999  1.000000e+00  2.150135e+02  7.894268e-03  1.048145e-01
       21    -1     0     0   101   102  0.0000000000e+00  0.0000000000e+00  6.5127258518e+02  6.5127258518e+02  0.0000000000e+00 0. 9.
       21    -1     0     0   102   103  0.0000000000e+00  0.0000000000e+00 -7.2641133902e+01  7.2641133902e+01  0.0000000000e+00 0. 9.
        6     2     1     2   101     0 -1.0583089126e+02 -6.9367266664e+01  3.4509641574e+02  4.0706399464e+02  1.7492159486e+02  1.781909e-13 9.
       -6     2     1     2     0   103  1.0583089126e+02  6.9367266664e+01  2.3353503554e+02  3.1684972445e+02  1.7275167098e+02  3.119444e-13 9.
       24     2     3     0     0     0 -1.0283821425e+02 -1.3275756259e+01  3.1896831273e+02  3.4492760094e+02  8.0512864499e+01  4.896016e-14 9.
        5     1     3     0   101     0 -2.9926770101e+00 -5.6091510404e+01  2.6128103005e+01  6.2136393698e+01  4.8000000000e+00 0. 9.
      -24     2     4     0     0     0  2.0795451643e+01  9.3957163747e+01  1.5168043746e+02  1.9618943994e+02  7.8885624850e+01  1.499357e-13 9.
       -5     1     4     0     0   103  8.5035439615e+01 -2.4589897083e+01  8.1854598083e+01  1.2066028450e+02  4.8000000000e+00 0. 9.
       -3     1     5     0     0   104 -5.5850684920e+01 -3.7232487644e+01  2.4526309177e+02  2.5428289625e+02  5.0000000000e-01 0. 9.
        4     1     5     0   104     0 -4.6987529329e+01  2.3956731385e+01  7.3705220966e+01  9.0644704692e+01  1.5000000000e+00 0. 9.
       11     1     7     0     0     0  2.2398464678e+01  8.3807950967e+01  6.3734951285e+01  1.0764575180e+02  5.1100000000e-04 0. 9.
      -12     1     7     0     0     0 -1.6030130341e+00  1.0149212780e+01  8.7945486177e+01  8.8543688142e+01  0.0000000000e+00 0. 9.
#pdf   21   21  1.001958e-01  1.117556e-02  2.141381e+02  8.097029e-01  7.450607e+00
</event>
<event>
    12  9999  1.000000e+00  1.780631e+02  7.877265e-03  1.072475e-01
       21    -1     0     0   101   102  0.0000000000e+00  0.0000000000e+00  2.4754318534e+02  2.4754318534e+02  0.0000000000e+00 0. 9.
       21    -1     0     0   102   103  0.0000000000e+00  0.0000000000e+00 -2.3245191462e+02  2.3245191462e+02  0.0000000000e+00 0. 9.
        6     2     1     2   101     0 -4.4737536523e+01 -1.6969439018e+01  1.6835588106e+02  2.4495289893e+02  1.7137330881e+02  5.411137e-15 9.
       -6     2     1     2     0   103  4.4737536523e+01  1.6969439018e+01 -1.5326461034e+02  2.3504220103e+02  1.7165484685e+02  3.048244e-13 9.
       24     2     3     0     0     0  1.6094555765e+01  3.1162163269e+01  4.3697733030e+01  9.8051951145e+01  8.0464763136e+01  5.556281e-15 9.
        5     1     3     0   101     0 -6.0832092288e+01 -4.8131602287e+01  1.2465814803e+02  1.4690094779e+02  4.8000000000e+00 0. 9.
      -24     2     4     0     0     0  2.0322589010e+01 -6.3593773170e+01 -7.7009034569e+01  1.2135634590e+02  6.5877125580e+01  3.660025e-15 9.
       -5     1     4     0     0   103  2.4414947513e+01  8.0563212188e+01 -7.6255575771e+01  1.1368585513e+02  4.8000000000e+00 0. 9.
      -13     1     5     0     0     0  4.6623198808e+01  2.9355380072e+01  1.7570859277e+01  5.7829121263e+01  1.0566000000e-01  2.125568e+05 9.
       14     1     5     0     0     0 -3.0528643044e+01  1.8067831976e+00  2.6126873753e+01  4.0222829882e+01  0.0000000000e+00 0. 9.
        1     1     7     0   104     0  1.9446264182e+01 -3.7504622868e+01 -2.4043717197e+00  4.2315999698e+01  3.3000000000e-01 0. 9.
       -2     1     7     0     0   104  8.7632482741e-01 -2.6089150302e+01 -7.4604662849e+01  7.9040346201e+01  3.3000000000e-01 0. 9.
#pdf   21   21  3.808357e-02  3.576183e-02  1.779276e+02  2.541740e+00  2.705749e+00
</event>
<event>
    12  9999  1.000000e+00  1.823364e+02  7.879400e-03  1.069352e-01
       21    -1     0     0   101   102  0.0000000000e+00  0.0000000000e+00  6.6222827131e+02  6.6222827131e+02  0.0000000000e+00 0. 9.
       21    -1     0     0   103   101  0.0000000000e+00  0.0000000000e+00 -6.4735852996e+01  6.4735852996e+01  0.0000000000e+00 0. 9.
        6     2     1     2   103     0 -3.3510169197e+00 -6.2919538311e+01  1.2627846904e+02  2.2163060846e+02  1.7089112689e+02  1.006334e-13 9.
       -6     2     1     2     0   102  3.3510169197e+00  6.2919538311e+01  4.7121394927e+02  5.0533351584e+02  1.7131631162e+02  1.642122e-13 9.
       24     2     3     0     0     0 -2.4206633898e+01 -4.2986113009e+00  1.3377329936e+02  1.5877695046e+02  8.1916940811e+01  1.078859e-15 9.
        5     1     3     0   103     0  2.0855616978e+01 -5.8620927010e+01 -7.4948303179e+00  6.2853658005e+01  4.8000000000e+00 0. 9.
      -24     2     4     0     0     0 -4.9289549929e+01  6.4310297401e+01  4.0259666698e+02  4.1870595142e+02  8.1641431903e+01  8.511192e-14 9.
       -5     1     4     0     0   102  5.2640566849e+01 -1.3907590894e+00  6.8617282289e+01  8.6627564422e+01  4.8000000000e+00 0. 9.
      -15     1     5     0     0     0  2.5121847390e+01 -2.1071544111e+01  4.2873013344e+01  5.4003421651e+01  1.7768200000e+00  1.469911e-01 9.
       16     1     5     0     0     0 -4.9328481288e+01  1.6772932810e+01  9.0900286014e+01  1.0477352881e+02  0.0000000000e+00 0. 9.
        3     1     7     0   104     0 -4.4771671085e+01  5.0270997125e+01  1.3651133905e+02  1.5220798721e+02  5.0000000000e-01 0. 9.
       -4     1     7     0     0   104 -4.5178788439e+00  1.4039300276e+01  2.6608532794e+02  2.6649796420e+02  1.5000000000e+00 0. 9.
#pdf   21   21  1.018813e-01  9.959362e-03  1.821370e+02  8.049574e-01  8.133765e+00
</event>
<event>
    12  9999  1.000000e+00  2.702358e+02  7.914979e-03  1.020110e-01
       21    -1     0     0   101   102  0.0000000000e+00  0.0000000000e+00  9.9279933085e+02  9.9279933085e+02  0.0000000000e+00 0. 9.
       21    -1     0     0   103   101  0.0000000000e+00  0.0000000000e+00 -9.0937105796e+01  9.0937105796e+01  0.0000000000e+00 0. 9.
        6     2     1     2   103     0  2.1838380999e+01 -2.0758152835e+02  2.1469447626e+02  3.4551824968e+02  1.7240109318e+02  9.755545e-14 9.
       -6     2     1     2     0   102 -2.1838380999e+01  2.0758152835e+02  6.8716774879e+02  7.3821818696e+02  1.7087881902e+02  1.407458e-14 9.
       24     2     3     0     0     0 -2.0124092997e+01 -3.7237712809e+01  8.3800851082e+01  1.2657979753e+02  8.4901331718e+01  1.258537e-13 9.
        5     1     3     0   103     0  4.1962473997e+01 -1.7034381554e+02  1.3089362518e+02  2.1893845215e+02  4.8000000000e+00 0. 9.
      -24     2     4     0     0     0 -3.9342857346e+01  6.8230546077e+01  4.4396521696e+02  4.5733455547e+02  7.6462500064e+01  1.595818e-14 9.
       -5     1     4     0     0   102  1.7504476347e+01  1.3935098227e+02  2.4320253183e+02  2.8088363150e+02  4.8000000000e+00 0. 9.
       -1     1     5     0     0   104 -1.1098666781e+01 -3.6158497470e+01 -4.2476853308e+00  3.8062699251e+01  3.3000000000e-01 0. 9.
        2     1     5     0   104     0 -9.0254262167e+00 -1.0792153389e+00  8.8048536413e+01  8.8517098284e+01  3.3000000000e-01 0. 9.
        3     1     7     0   105     0 -3.4780865085e+01  5.3599358986e+01  1.5097487049e+02  1.6393981023e+02  5.0000000000e-01 0. 9.
       -4     1     7     0     0   105 -4.5619922609e+00  1.4631187091e+01  2.9299034647e+02  2.9339474524e+02  1.5000000000e+00 0. 9.
#pdf   21   21  1.527384e-01  1.399032e-02  2.697528e+02  4.151160e-01  6.216401e+00
</event>
<event>
    12  9999  1.000000e+00  3.188783e+02  7.930042e-03  1.000741e-01
        1    -1     0     0   101     0  0.0000000000e+00  0.0000000000e+00  1.3502418583e+02  1.3502418583e+02  0.0000000000e+00 0. 9.
       -1    -1     0     0     0   102  0.0000000000e+00  0.0000000000e+00 -8.6203885224e+02  8.6203885224e+02  0.0000000000e+00 0. 9.
        6     2     1     2   101     0  6.8948051331e+01  2.5983819266e+02 -1.8635811930e+02  3.6942250378e+02  1.7167969456e+02  1.448270e-13 9.
       -6     2     1     2     0   102 -6.8948051331e+01 -2.5983819266e+02 -5.4065654710e+02  6.2764053429e+02  1.7132839291e+02  6.887563e-14 9.
       24     2     3     0     0     0  8.4808096553e+01  2.0620732668e+02 -8.1854869641e+01  2.5079797002e+02  8.0532771381e+01  1.150589e-13 9.
        5     1     3     0   101     0 -1.5860045222e+01  5.3630865977e+01 -1.0450324966e+02  1.1862453376e+02  4.8000000000e+00 0. 9.
      -24     2     4     0     0     0 -3.3202688180e+01 -5.1778225855e+01 -1.1979835658e+02  1.5677820058e+02  8.0276738631e+01  1.310910e-14 9.
       -5     1     4     0     0   102 -3.5745363151e+01 -2.0805996680e+02 -4.2085819053e+02  4.7086233371e+02  4.8000000000e+00 0. 9.
       -1     1     5     0     0   103  9.8106037151e+01  1.7683954656e+02 -8.2766944820e+01  2.1851200381e+02  3.3000000000e-01 0. 9.
        4     1     5     0   103     0 -1.3297940598e+01  2.9367780119e+01  9.1207517923e-01  3.2285966215e+01  1.5000000000e+00 0. 9.
        3     1     7     0   104     0 -1.0269226049e+01 -6.2240293540e+01 -4.4075503218e+01  7.6955903786e+01  5.0000000000e-01 0. 9.
       -4     1     7     0     0   104 -2.2933462131e+01  1.0462067685e+01 -7.5722853357e+01  7.9822296798e+01  1.5000000000e+00 0. 9.
#pdf    1   -1  2.077295e-02  1.326214e-01  3.187838e+02  5.500379e-01  6.308294e-02
</event>
<event>
    12  9999  1.000000e+00  2.371524e+02  7.903134e-03  1.035937e-01
       21    -1     0     0   101   102  0.0000000000e+00  0.0000000000e+00  2.7291593205e+02  2.7291593205e+02  0.0000000000e+00 0. 9.
       21    -1     0     0   102   103  0.0000000000e+00  0.0000000000e+00 -3.7585775797e+02  3.7585775797e+02  0.0000000000e+00 0. 9.
        6     2     1     2   101     0 -1.6259688206e+02  2.4775775043e+01  1.6656147985e+02  2.8971967047e+02  1.7071372471e+02  1.713208e-13 9.
       -6     2     1     2     0   103  1.6259688206e+02 -2.4775775043e+01 -2.6950330577e+02  3.5905401956e+02  1.7098588263e+02  5.879221e-13 9.
       24     2     3     0     0     0 -1.2442723523e+02  7.8871718219e+01  1.0401971424e+02  1.9851766691e+02  8.2983602741e+01  4.452950e-16 9.
        5     1     3     0   101     0 -3.8169646827e+01 -5.4095943176e+01  6.2541765609e+01  9.1202003555e+01  4.8000000000e+00 0. 9.
      -24     2     4     0     0     0  8.1189226995e+01  1.1412268967e+01 -5.6195242609e+01  1.2783950738e+02  8.0393431901e+01  1.467410e-14 9.
       -5     1     4     0     0   103  8.1407655065e+01 -3.6188044010e+01 -2.1330806316e+02  2.3121451218e+02  4.8000000000e+00 0. 9.
       -1     1     5     0     0   104 -5.9484465529e+01  8.5082029141e+01  6.2087298944e+01  1.2096402321e+02  3.3000000000e-01 0. 9.
        2     1     5     0   104     0 -6.4942769704e+01 -6.2103109217e+00  4.1932415294e+01  7.7553643699e+01  3.3000000000e-01 0. 9.
        3     1     7     0   105     0 -4.1160716680e-01  3.0305013701e+01 -2.1518242471e+01  3.7173216634e+01  5.0000000000e-01 0. 9.
       -4     1     7     0     0   105  8.1600834162e+01 -1.8892744734e+01 -3.4677000137e+01  9.0666290748e+01  1.5000000000e+00 0. 9.
#pdf   21   21  4.198707e-02  5.782427e-02  2.370543e+02  2.266144e+00  1.597549e+00
</event>
<event>
    12  9999  1.000000e+00  2.041478e+02  7.889585e-03  1.054724e-01
       21    -1     0     0   101   102  0.0000000000e+00  0.0000000000e+00  2.5392517675e+02  2.5392517675e+02  0.0000000000e+00 0. 9.
       21    -1     0     0   103   101  0.0000000000e+00  0.0000000000e+00 -1.6843504774e+02  1.6843504774e+02  0.0000000000e+00 0. 9.
        6     2     1     2   103     0 -9.6158738788e+01 -5.6658971299e+01  7.6377112456e+01  2.1737201155e+02  1.7017751327e+02  6.065703e-13 9.
       -6     2     1     2     0   102  9.6158738788e+01  5.6658971299e+01  9.1130165507e+00  2.0498821295e+02  1.7169850990e+02  9.465117e-14 9.
       24     2     3     0     0     0 -1.3095456146e+02 -2.4367092872e+01  5.2004736075e+01  1.6379433506e+02  7.9882659208e+01  5.828887e-14 9.
        5     1     3     0   103     0  3.4795822668e+01 -3.2291878428e+01  2.4372376381e+01  5.3577676489e+01  4.8000000000e+00 0. 9.
      -24     2     4     0     0     0  6.3687820754e+01 -2.6220650706e+01 -1.8963258966e+01  1.1152854513e+02  8.5646658734e+01  1.210335e-13 9.
       -5     1     4     0     0   102  3.2470918033e+01  8.2879622005e+01  2.8076275516e+01  9.3459667817e+01  4.8000000000e+00 0. 9.
      -13     1     5     0     0     0 -1.0931966523e+01  6.0541996121e+00  3.7020675142e+01  3.9073044123e+01  1.0566000000e-01  1.093789e+06 9.
       14     1     5     0     0     0 -1.2002259493e+02 -3.0421292484e+01  1.4984060933e+01  1.2472129094e+02  0.0000000000e+00 0. 9.
       13     1     7     0     0     0  5.4780131990e+01  8.9042871767e+00  1.9366597036e+01  5.8781165655e+01  1.0566000000e-01  3.107107e+05 9.
      -14     1     7     0     0     0  8.9076887648e+00 -3.5124937882e+01 -3.8329856002e+01  5.2747379475e+01  0.0000000000e+00 0. 9.
#pdf   21   21  3.906541e-02  2.591308e-02  2.035120e+02  2.461279e+00  3.658661e+00
</event>
<event>
    12  9999  1.000000e+00  2.186080e+02  7.895766e-03  1.046060e-01
       -2    -1     0     0     0   101  0.0000000000e+00  0.0000000000e+00  6.1470844185e+01  6.1470844185e+01  0.0000000000e+00 0. 9.
        2    -1     0     0   102     0  0.0000000000e+00  0.0000000000e+00 -7.7877170358e+02  7.7877170358e+02  0.0000000000e+00 0. 9.
       -6     2     1     2     0   101 -1.1091440406e+02 -9.1076273247e+01 -3.8122605753e+02  4.4182150517e+02  1.7110243398e+02  2.830915e-13 9.
        6     2     1     2   102     0  1.1091440406e+02  9.1076273247e+01 -3.3607480187e+02  3.9842104259e+02  1.5873299013e+02  1.208696e-13 9.
      -24     2     3     0     0     0 -6.8232512146e+01  2.0381189226e+00 -1.1251729822e+02  1.5421157617e+02  8.0381827457e+01  2.064113e-13 9.
       -5     1     3     0     0   101 -4.2681891916e+01 -9.3114392170e+01 -2.6870875931e+02  2.8760992900e+02  4.8000000000e+00 0. 9.
       24     2     4     0     0     0  7.7201671986e+01  1.1641986712e+02 -2.0347587202e+02  2.5919330739e+02  7.9152109778e+01  5.551658e-15 9.
        5     1     4     0   102     0  3.3712732077e+01 -2.5343593875e+01 -1.3259892984e+02  1.3922773520e+02  4.8000000000e+00 0. 9.
        1     1     5     0   103     0 -6.2979217267e+01 -3.1024936831e+01 -8.8709928696e+01  1.1313040644e+02  3.3000000000e-01 0. 9.
       -2     1     5     0     0   103 -5.2532948793e+00  3.3063055753e+01 -2.3807369520e+01  4.1081169729e+01  3.3000000000e-01 0. 9.
      -13     1     7     0     0     0  8.6675340834e+01  1.0417650554e+02 -2.0252472567e+02  2.4368347233e+02  1.0566000000e-01  2.453175e+05 9.
       14     1     7     0     0     0 -9.4736688488e+00  1.2243361579e+01 -9.5114635527e-01  1.5509835060e+01  0.0000000000e+00 0. 9.
#pdf   -2    2  9.457053e-03  1.198110e-01  2.139931e+02  5.412558e-01  5.540593e-01
</event>
<event>
    12  9999  1.000000e+00  1.754406e+02  7.875931e-03  1.074438e-01
       21    -1     0     0   101   102  0.0000000000e+00  0.0000000000e+00  1.1980263122e+02  1.1980263122e+02  0.0000000000e+00 0. 9.
       21    -1     0     0   102   103  0.0000000000e+00  0.0000000000e+00 -2.9330262014e+02  2.9330262014e+02  0.0000000000e+00 0. 9.
        6     2     1     2   101     0 -1.3373974102e+00  3.8172613198e+01 -1.3138692835e+01  1.7386796567e+02  1.6911093166e+02  1.168937e-13 9.
       -6     2     1     2     0   103  1.3373974102e+00 -3.8172613198e+01 -1.6036129609e+02  2.3923728569e+02  1.7337761260e+02  7.991334e-14 9.
       24     2     3     0     0     0 -1.0977218886e+01 -2.1997660639e+01 -5.3772187473e+01  1.0046831378e+02  8.1228304914e+01  8.239288e-14 9.
        5     1     3     0   101     0  9.6398214761e+00  6.0170273837e+01  4.0633494639e+01  7.3399651895e+01  4.8000000000e+00 0. 9.
      -24     2     4     0     0     0  4.6271397671e+01  1.8399624510e-02 -1.5398790976e+02  1.7972864856e+02  8.0306090554e+01  1.032429e-13 9.
       -5     1     4     0     0   103 -4.4934000260e+01 -3.8191012823e+01 -6.3733863271e+00  5.9508637130e+01  4.8000000000e+00 0. 9.
       -1     1     5     0     0   104  2.3469611339e+01  6.6388133491e-01 -5.4376585352e+01  5.9229936091e+01  3.3000000000e-01 0. 9.
        2     1     5     0   104     0 -3.4446830226e+01 -2.2661541974e+01  6.0439787867e-01  4.1238377684e+01  3.3000000000e-01 0. 9.
       11     1     7     0     0     0  2.6073335768e+01 -3.9762045927e+01 -6.9914914096e+01  8.4551371057e+01  5.1100000000e-04 0. 9.
      -12     1     7     0     0     0  2.0198061902e+01  3.9780445551e+01 -8.4072995664e+01  9.5177277502e+01  0.0000000000e+00 0. 9.
#pdf   21   21  1.843117e-02  4.512348e-02  1.733708e+02  4.959059e+00  2.138639e+00
</event>
<event>
    12  9999  1.000000e+00  1.756003e+02  7.876012e-03  1.074317e-01
       21    -1     0     0   101   102  0.0000000000e+00  0.0000000000e+00  7.6810678260e+02  7.6810678260e+02  0.0000000000e+00 0. 9.
       21    -1     0     0   102   103  0.0000000000e+00  0.0000000000e+00 -4.9728863282e+01  4.9728863282e+01  0.0000000000e+00 0. 9.
        6     2     1     2   101     0 -3.1299263948e+00  4.0093885224e+01  5.3927325093e+02  5.6724962957e+02  1.7128685590e+02  3.486396e-13 9.
       -6     2     1     2     0   103  3.1299263948e+00 -4.0093885224e+01  1.7910466839e+02  2.5058601631e+02  1.7058004943e+02  8.541706e-14 9.
       24     2     3     0     0     0 -6.0626847135e+01  4.1879758887e+01  4.3074111809e+02  4.4432140215e+02  8.0337219212e+01  5.298936e-15 9.
        5     1     3     0   101     0  5.7496920740e+01 -1.7858736625e+00  1.0853213284e+02  1.2292822743e+02  4.8000000000e+00 0. 9.
      -24     2     4     0     0     0 -4.1241141543e+01 -6.4195531127e+01  9.7751261332e+01  1.5471580277e+02  9.2519038920e+01  1.970021e-14 9.
       -5     1     4     0     0   103  4.4371067938e+01  2.4101645903e+01  8.1353407056e+01  9.5870213543e+01  4.8000000000e+00 0. 9.
      -11     1     5     0     0     0 -5.6261147057e+01  1.8038941349e+01  1.3224483335e+02  1.4484272858e+02  5.1100000000e-04 0. 9.
       12     1     5     0     0     0 -4.3657000772e+00  2.3840817538e+01  2.9849628474e+02  2.9947867357e+02  0.0000000000e+00 0. 9.
       13     1     7     0     0     0 -4.9648807234e+01 -4.7444651670e+01  1.1185897223e+02  1.3125715167e+02  1.0566000000e-01  2.634695e+05 9.
      -14     1     7     0     0     0  8.4076656909e+00 -1.6750879457e+01 -1.4107710895e+01  2.3458651105e+01  0.0000000000e+00 0. 9.
#pdf   21   21  1.181703e-01  7.650594e-03  1.752566e+02  6.553841e-01  9.898328e+00
</event>
<event>
    12  9999  1.000000e+00  2.586010e+02  7.910983e-03  1.025389e-01
       21    -1     0     0   101   102  0.0000000000e+00  0.0000000000e+00  1.1135587482e+02  1.1135587482e+02  0.0000000000e+00 0. 9.
       21    -1     0     0   102   103  0.0000000000e+00  0.0000000000e+00 -6.9123937379e+02  6.9123937379e+02  0.0000000000e+00 0. 9.
        6     2     1     2   101     0 -7.6647077030e+01  1.7663327617e+02 -1.4344112252e+02  2.9468532191e+02  1.7085079645e+02  1.742054e-13 9.
       -6     2     1     2     0   103  7.6647077030e+01 -1.7663327617e+02 -4.3644237646e+02  5.0790992670e+02  1.7440314507e+02  3.261245e-13 9.
       24     2     3     0     0     0 -7.1307452997e+01  3.1202144653e+01 -6.2928824255e+01  1.2830023912e+02  8.0265732123e+01  1.354412e-13 9.
        5     1     3     0   101     0 -5.3396240330e+00  1.4543113152e+02 -8.0512298268e+01  1.6638508278e+02  4.8000000000e+00 0. 9.
      -24     2     4     0     0     0  3.6338458627e+01 -2.1469546507e+01 -2.1876148651e+02  2.3752394784e+02  8.2338404241e+01  7.496541e-14 9.
       -5     1     4     0     0   103  4.0308618403e+01 -1.5516372967e+02 -2.1768088994e+02  2.7038597886e+02  4.8000000000e+00 0. 9.
       -3     1     5     0     0   104 -2.9488677819e+01  5.4646146748e+01 -2.4179923159e+01  6.6638593607e+01  5.0000000000e-01 0. 9.
        4     1     5     0   104     0 -4.1818775178e+01 -2.3444002096e+01 -3.8748901096e+01  6.1661645517e+01  1.5000000000e+00 0. 9.
        1     1     7     0   105     0  4.2129884316e+00 -4.3195827415e+01 -1.6871721854e+02  1.7421032549e+02  3.3000000000e-01 0. 9.
       -2     1     7     0     0   105  3.2125470195e+01  2.1726280908e+01 -5.0044267979e+01  6.3313622349e+01  3.3000000000e-01 0. 9.
#pdf   21   21  1.713167e-02  1.063445e-01  2.574181e+02  5.247644e+00  7.303054e-01
</event>
<event>
    12  9999  1.000000e+00  1.861817e+02  7.881279e-03  1.066619e-01
       21    -1     0     0   101   102  0.0000000000e+00  0.0000000000e+00  5.6768980842e+02  5.6768980842e+02  0.0000000000e+00 0. 9.
       21    -1     0     0   102   103  0.0000000000e+00  0.0000000000e+00 -1.1473477266e+02  1.1473477266e+02  0.0000000000e+00 0. 9.
        6     2     1     2   101     0  5.7095409470e-01  7.1501741919e+01  4.5981094843e+02  4.9604890041e+02  1.7183008529e+02  3.736716e-13 9.
       -6     2     1     2     0   103 -5.7095409470e-01 -7.1501741919e+01 -6.8559126655e+00  1.8637568068e+02  1.7197693369e+02  1.147251e-13 9.
       24     2     3     0     0     0  1.6592837975e+01  6.5061145676e+01  1.3543863357e+02  1.7118181883e+02  8.0320088932e+01  1.926043e-13 9.
        5     1     3     0   101     0 -1.6021883880e+01  6.4405962423e+00  3.2437231486e+02  3.2486708158e+02  4.8000000000e+00 0. 9.
      -24     2     4     0     0     0  4.6824553549e+01 -5.7452580048e+01  4.1152946492e+01  1.1729888536e+02  8.1068648265e+01  2.487049e-13 9.
       -5     1     4     0     0   103 -4.7395507644e+01 -1.4049161871e+01 -4.8008859157e+01  6.9076795320e+01  4.8000000000e+00 0. 9.
       -1     1     5     0     0   104 -7.7469901373e+00  3.5668010572e+01  1.2693907327e+02  1.3208277729e+02  3.3000000000e-01 0. 9.
        2     1     5     0   104     0  2.4339828112e+01  2.9393135104e+01  8.4995602959e+00  3.9099041535e+01  3.3000000000e-01 0. 9.
        3     1     7     0   105     0  2.1307491660e+01 -7.5485326808e+01  3.1921625175e+01  8.4683433551e+01  5.0000000000e-01 0. 9.
       -4     1     7     0     0   105  2.5517061890e+01  1.8032746760e+01  9.2313213170e+00  3.2615451805e+01  1.5000000000e+00 0. 9.
#pdf   21   21  8.733689e-02  1.765150e-02  1.861140e+02  9.866231e-01  5.140190e+00
</event>
<event>
    12  9999  1.000000e+00  2.121089e+02  7.893039e-03  1.049863e-01
       21    -1     0     0   101   102  0.0000000000e+00  0.0000000000e+00  7.0803672559e+01  7.0803672559e+01  0.0000000000e+00 0. 9.
       21    -1     0     0   102   103  0.0000000000e+00  0.0000000000e+00 -8.2837401705e+02  8.2837401705e+02  0.0000000000e+00 0. 9.
        6     2     1     2   101     0  2.2868724492e+01  1.2129824522e+02 -1.6141331883e+02  2.6631601973e+02  1.7214447425e+02  4.425076e-14 9.
       -6     2     1     2     0   103 -2.2868724492e+01 -1.2129824522e+02 -5.9615702566e+02  6.3286166988e+02  1.7284227232e+02  2.006414e-13 9.
       24     2     3     0     0     0 -3.2348231779e+01  1.6338630962e+01 -5.2038645550e+01  1.0491189326e+02  8.3577064777e+01  5.045482e-14 9.
        5     1     3     0   101     0  5.5216956271e+01  1.0495961426e+02 -1.0937467328e+02  1.6140412647e+02  4.8000000000e+00 0. 9.
      -24     2     4     0     0     0  1.3080618680e+01 -9.5004933450e+01 -5.4953904889e+02  5.6820898798e+02  1.0803354943e+02  3.511221e-14 9.
       -5     1     4     0     0   103 -3.5949343172e+01 -2.6293311771e+01 -4.6617976772e+01  6.4652681899e+01  4.8000000000e+00 0. 9.
      -15     1     5     0     0     0  4.2286994317e-01 -7.2212990571e+00 -6.2720484022e+01  6.3161239572e+01  1.7768200000e+00  2.630892e-02 9.
       16     1     5     0     0     0 -3.2771101722e+01  2.3559930019e+01  1.0681838472e+01  4.1750653692e+01  0.0000000000e+00 0. 9.
        1     1     7     0   104     0 -4.7704877139e+01 -4.5283691000e+01 -2.3758868025e+02  2.4652557242e+02  3.3000000000e-01 0. 9.
       -2     1     7     0     0   104  6.0785495819e+01 -4.9721242450e+01 -3.1195036864e+02  3.2168341556e+02  3.3000000000e-01 0. 9.
#pdf   21   21  1.089287e-02  1.274422e-01  2.118253e+02  7.601155e+00  5.725596e-01
</event>
<event>
    12  9999  1.000000e+00  2.019662e+02  7.888615e-03  1.056098e-01
       21    -1     0     0   101   102  0.0000000000e+00  0.0000000000e+00  1.7232701812e+02  1.7232701812e+02  0.0000000000e+00 0. 9.
       21    -1     0     0   102   103  0.0000000000e+00  0.0000000000e+00 -2.4465877783e+02  2.4465877783e+02  0.0000000000e+00 0. 9.
        6     2     1     2   101     0  5.0722747787e+01 -9.3529921520e+01 -7.3833858486e+01  2.1543948970e+02  1.7216878840e+02  1.425332e-13 9.
       -6     2     1     2     0   103 -5.0722747787e+01  9.3529921520e+01  1.5020987733e+00  2.0154630625e+02  1.7116662613e+02  1.085833e-13 9.
       24     2     3     0     0     0  1.6942820872e+00 -1.1796103638e+02 -3.1213506042e+01  1.4586791314e+02  7.9909251212e+01  1.897412e-13 9.
        5     1     3     0   101     0  4.9028465700e+01  2.4431114856e+01 -4.2620352444e+01  6.9571576556e+01  4.8000000000e+00 0. 9.
      -24     2     4     0     0     0 -2.0271914333e+01  1.0097311445e+02 -5.0513468797e+01  1.4062575431e+02  8.1347845037e+01  3.846940e-14 9.
       -5     1     4     0     0   103 -3.0450833454e+01 -7.4431929328e+00  5.2015567570e+01  6.0920551941e+01  4.8000000000e+00 0. 9.
      -15     1     5     0     0     0 -2.4782934824e+01 -1.5361999021e+01 -2.7070508264e+01  3.9826553697e+01  1.7768200000e+00  9.568459e-02 9.
       16     1     5     0     0     0  2.6477216912e+01 -1.0259903736e+02 -4.1429977779e+00  1.0604135944e+02  0.0000000000e+00 0. 9.
        1     1     7     0   104     0 -3.3710481243e+01  1.0490955993e+02 -2.7317575205e+01  1.1352872379e+02  3.3000000000e-01 0. 9.
       -2     1     7     0     0   104  1.3438566909e+01 -3.9364454749e+00 -2.3195893592e+01  2.7097030521e+01  3.3000000000e-01 0. 9.
#pdf   21   21  2.651185e-02  3.763981e-02  2.015407e+02  3.583618e+00  2.556736e+00
</event>
<event>
    12  9999  1.000000e+00  1.951008e+02  7.885496e-03  1.060543e-01
       21    -1     0     0   101   102  0.0000000000e+00  0.0000000000e+00  1.5526445013e+02  1.5526445013e+02  0.0000000000e+00 0. 9.
       21    -1     0     0   103   101  0.0000000000e+00  0.0000000000e+00 -1.1032652273e+03  1.1032652273e+03  0.0000000000e+00 0. 9.
        6     2     1     2   103     0  8.1581822931e+01  4.3748856471e+01 -1.0285399452e+03  1.0467355604e+03  1.7085478708e+02  8.579204e-14 9.
       -6     2     1     2     0   102 -8.1581822931e+01 -4.3748856471e+01  8.0539168031e+01  2.1179411703e+02  1.7262860176e+02  4.777524e-14 9.
       24     2     3     0     0     0  3.7688616699e+01  6.5911771779e+01 -9.2876103391e+02  9.3539518361e+02  8.1254525487e+01  1.911991e-13 9.
        5     1     3     0   103     0  4.3893206233e+01 -2.2162915308e+01 -9.9778911317e+01  1.1134037683e+02  4.8000000000e+00 0. 9.
      -24     2     4     0     0     0 -9.8491159255e+01 -9.3969999602e+00  6.2409389794e+01  1.6915957048e+02  1.2219335617e+02  1.792140e-13 9.
       -5     1     4     0     0   102  1.6909336323e+01 -3.4351856511e+01  1.8129778237e+01  4.2634546551e+01  4.8000000000e+00 0. 9.
       -3     1     5     0     0   104 -1.6890567958e+01  3.3552281212e+01 -1.7608048634e+02  1.8004342402e+02  5.0000000000e-01 0. 9.
        4     1     5     0   104     0  5.4579184657e+01  3.2359490567e+01 -7.5268054757e+02  7.5535175959e+02  1.5000000000e+00 0. 9.
        1     1     7     0   105     0 -6.0970757033e+01 -6.5531015048e+01  3.1368969915e+01  9.4846551440e+01  3.3000000000e-01 0. 9.
       -2     1     7     0     0   105 -3.7520402222e+01  5.6134015088e+01  3.1040419878e+01  7.4313019041e+01  3.3000000000e-01 0. 9.
#pdf   21   21  2.388684e-02  1.697331e-01  1.943217e+02  3.945249e+00  3.633073e-01
</event>
<event>
    12  9999  1.000000e+00  1.733622e+02  7.874859e-03  1.076020e-01
       21    -1     0     0   101   102  0.0000000000e+00  0.0000000000e+00  1.0253627432e+03  1.0253627432e+03  0.0000000000e+00 0. 9.
       21    -1     0     0   102   103  0.0000000000e+00  0.0000000000e+00 -2.9592272897e+01  2.9592272897e+01  0.0000000000e+00 0. 9.
        6     2     1     2   101     0 -2.7027125280e+01 -2.1604978526e+00  5.4709936359e+02  5.7368144524e+02  1.7046276345e+02  7.315772e-14 9.
       -6     2     1     2     0   103  2.7027125280e+01  2.1604978526e+00  4.4867110668e+02  4.8127357082e+02  1.7199812426e+02  2.444641e-13 9.
       24     2     3     0     0     0 -3.8426182945e+01  4.9030059651e+01  2.2140223321e+02  2.4375407077e+02  8.0725335914e+01  6.143388e-14 9.
        5     1     3     0   101     0  1.1399057665e+01 -5.1190557504e+01  3.2569713038e+02  3.2992737448e+02  4.8000000000e+00 0. 9.
      -24     2     4     0     0     0  2.8781958729e+01 -3.3676840371e+01  1.2216683425e+02  1.5276866345e+02  8.0318107651e+01  1.148266e-13 9.
       -5     1     4     0     0   103 -1.7548334488e+00  3.5837338224e+01  3.2650427243e+02  3.2850490737e+02  4.8000000000e+00 0. 9.
       -3     1     5     0     0   104 -5.7288578067e+00  2.3684195392e+01  6.9517369279e+00  2.5344379445e+01  5.0000000000e-01 0. 9.
        4     1     5     0   104     0 -3.2697325138e+01  2.5345864259e+01  2.1445049629e+02  2.1840969132e+02  1.5000000000e+00 0. 9.
        1     1     7     0   105     0 -1.7142292425e+00  6.7596286453e+00 -9.4464847166e+00  1.1746324311e+01  3.3000000000e-01 0. 9.
       -2     1     7     0     0   105  3.0496187971e+01 -4.0436469016e+01  1.3161331897e+02  1.4102233914e+02  3.3000000000e-01 0. 9.
#pdf   21   21  1.577481e-01  4.552657e-03  1.726056e+02  4.190389e-01  1.427760e+01
</event>
<event>
    12  9999  1.000000e+00  1.844442e+02  7.880435e-03  1.067846e-01
       21    -1     0     0   101   102  0.0000000000e+00  0.0000000000e+00  2.7063587106e+02  2.7063587106e+02  0.0000000000e+00 0. 9.
       21    -1     0     0   103   101  0.0000000000e+00  0.0000000000e+00 -1.4037380639e+02  1.4037380639e+02  0.0000000000e+00 0. 9.
        6     2     1     2   103     0  2.6945069710e+01 -6.3856454162e+01 -1.2838299284e+00  1.8451903375e+02  1.7100275459e+02  3.466520e-16 9.
       -6     2     1     2     0   102 -2.6945069710e+01  6.3856454162e+01  1.3154589460e+02  2.2649064370e+02  1.7085082902e+02  1.717892e-14 9.
       24     2     3     0     0     0  2.0726015605e+00 -8.9418087965e+00 -5.9868320737e+01  1.0032021837e+02  7.9972987722e+01  2.429836e-14 9.
        5     1     3     0   103     0  2.4872468150e+01 -5.4914645365e+01  5.8584490808e+01  8.4198815376e+01  4.8000000000e+00 0. 9.
      -24     2     4     0     0     0 -3.4820509891e+01  9.3705918678e+01  1.4387298003e+02  1.9290478171e+02  8.0743750965e+01  5.246462e-14 9.
       -5     1     4     0     0   102  7.8754401811e+00 -2.9849464517e+01 -1.2327085430e+01  3.3585861984e+01  4.8000000000e+00 0. 9.
       -1     1     5     0     0   104  9.2991978870e-01  2.0695651341e+01  1.1026501057e+01  2.3470563709e+01  3.3000000000e-01 0. 9.
        2     1     5     0   104     0  1.1426817718e+00 -2.9637460138e+01 -7.0894821794e+01  7.6849654666e+01  3.3000000000e-01 0. 9.
        3     1     7     0   105     0  1.5073697980e+01  6.9305868264e+01  9.7288029799e+01  1.2039821630e+02  5.0000000000e-01 0. 9.
       -4     1     7     0     0   105 -4.9894207872e+01  2.4400050415e+01  4.6584950233e+01  7.2506565410e+01  1.5000000000e+00 0. 9.
#pdf   21   21  4.163629e-02  2.159597e-02  1.843738e+02  2.317634e+00  4.320731e+00
</event>
<event>
    12  9999  1.000000e+00  1.792363e+02  7.877856e-03  1.071608e-01
       21    -1     0     0   101   102  0.0000000000e+00  0.0000000000e+00  3.9820123704e+02  3.9820123704e+02  0.0000000000e+00 0. 9.
       21    -1     0     0   103   101  0.0000000000e+00  0.0000000000e+00 -8.6827830242e+01  8.6827830242e+01  0.0000000000e+00 0. 9.
        6     2     1     2   103     0 -1.1785020629e+01  5.5607276485e+01  2.1932493136e+02  2.8255151078e+02  1.6882202113e+02  8.234338e-14 9.
       -6     2     1     2     0   102  1.1785020629e+01 -5.5607276485e+01  9.2048475436e+01  2.0247755650e+02  1.7115251428e+02  1.896472e-13 9.
       24     2     3     0     0     0  2.8826618058e+00  1.0179058531e+02  1.5115528317e+02  1.9877693316e+02  7.9339249604e+01  2.113696e-13 9.
        5     1     3     0   103     0 -1.4667682435e+01 -4.6183308826e+01  6.8169648192e+01  8.3774577628e+01  4.8000000000e+00 0. 9.
      -24     2     4     0     0     0  3.8395143669e+01 -8.8517899032e+01  7.4680582207e+01  1.5647873651e+02  9.7973466388e+01  9.821545e-14 9.
       -5     1     4     0     0   102 -2.6610123040e+01  3.2910622546e+01  1.7367893229e+01  4.5998819983e+01  4.8000000000e+00 0. 9.
       -3     1     5     0     0   104  9.3196947766e+00  6.1612664439e+01  1.4470346950e+02  1.5755101147e+02  5.0000000000e-01 0. 9.
        4     1     5     0   104     0 -6.4370329708e+00  4.0177920872e+01  6.4518136680e+00  4.1225921684e+01  1.5000000000e+00 0. 9.
        3     1     7     0   105     0  1.7198061847e+01 -4.4969342777e+01 -1.8396848622e+01  5.1543274637e+01  5.0000000000e-01 0. 9.
       -4     1     7     0     0   105  2.1197081822e+01 -4.3548556255e+01  9.3077430830e+01  1.0493546188e+02  1.5000000000e+00 0. 9.
#pdf   21   21  6.126173e-02  1.335813e-02  1.781346e+02  1.526544e+00  6.464648e+00
</event>
<event>
    12  9999  1.000000e+00  2.009041e+02  7.888139e-03  1.056773e-01
       21    -1     0     0   101   102  0.0000000000e+00  0.0000000000e+00  9.4682789937e+02  9.4682789937e+02  0.0000000000e+00 0. 9.
       21    -1     0     0   102   103  0.0000000000e+00  0.0000000000e+00 -1.2525716652e+02  1.2525716652e+02  0.0000000000e+00 0. 9.
        6     2     1     2   101     0 -1.0493853253e+02  1.2874504373e+01  8.4584303267e+02  8.6927078043e+02  1.7030386172e+02  2.808259e-14 9.
       -6     2     1     2     0   103  1.0493853253e+02 -1.2874504373e+01 -2.4272299823e+01  2.0281428546e+02  1.7136697866e+02  1.239459e-14 9.
       24     2     3     0     0     0 -1.4088104233e+02  2.0202398401e+01  6.9397681005e+02  7.1296354575e+02  8.0359191669e+01  9.874354e-15 9.
        5     1     3     0   101     0  3.5942509798e+01 -7.3278940282e+00  1.5186622262e+02  1.5630723469e+02  4.8000000000e+00 0. 9.
      -24     2     4     0     0     0  3.1315973343e+01  4.6575594523e+01 -3.8104521331e+01  1.0705956844e+02  8.2824033088e+01  3.489231e-14 9.
       -5     1     4     0     0   103  7.3622559188e+01 -5.9450098896e+01  1.3832221508e+01  9.5754717022e+01  4.8000000000e+00 0. 9.
       -3     1     5     0     0   104 -9.3247335092e+01 -1.0884464645e+01  2.8542177127e+02  3.0046526352e+02  5.0000000000e-01 0. 9.
        4     1     5     0   104     0 -4.7633707238e+01  3.1086863046e+01  4.0855503879e+02  4.1249828222e+02  1.5000000000e+00 0. 9.
       15     1     7     0     0     0  2.6406743289e+01  7.0294720938e+01 -2.3173620711e+01  7.8605582937e+01  1.7768200000e+00  1.474330e-02 9.
      -16     1     7     0     0     0  4.9092300549e+00 -2.3719126415e+01 -1.4930900620e+01  2.8453985502e+01  0.0000000000e+00 0. 9.
#pdf   21   21  1.456658e-01  1.927033e-02  2.004526e+02  4.677647e-01  4.764334e+00
</event>
<event>
    12  9999  1.000000e+00  3.926622e+02  7.949067e-03  9.774159e-02
       21    -1     0     0   101   102  0.0000000000e+00  0.0000000000e+00  4.2373482867e+02  4.2373482867e+02  0.0000000000e+00 0. 9.
       21    -1     0     0   103   101  0.0000000000e+00  0.0000000000e+00 -3.6592755564e+02  3.6592755564e+02  0.0000000000e+00 0. 9.
        6     2     1     2   103     0  2.2948242080e+02 -2.6883092345e+02  5.8529105468e+01  3.9707207999e+02  1.7119676883e+02  2.263265e-13 9.
       -6     2     1     2     0   102 -2.2948242080e+02  2.6883092345e+02 -7.2183244043e-01  3.9259030433e+02  1.7086362734e+02  1.618031e-14 9.
       24     2     3     0     0     0  7.1926092115e+01 -9.5900507725e+01 -2.7651635776e+01  1.4771473489e+02  8.1760380586e+01  1.841138e-13 9.
        5     1     3     0   103     0  1.5755632869e+02 -1.7293041573e+02  8.6180741244e+01  2.4935734510e+02  4.8000000000e+00 0. 9.
      -24     2     4     0     0     0 -5.2131754355e+01  4.6928191919e+01 -1.4976983566e+01  1.0812531442e+02  8.0912289376e+01  6.673467e-14 9.
       -5     1     4     0     0   102 -1.7735066645e+02  2.2190273153e+02  1.4255151125e+01  2.8446498991e+02  4.8000000000e+00 0. 9.
       -3     1     5     0     0   104  6.1804158510e+01 -9.5368165858e+01 -4.9212926689e+01  1.2384265510e+02  5.0000000000e-01 0. 9.
        4     1     5     0   104     0  1.0121933605e+01 -5.3234186665e-01  2.1561290913e+01  2.3872079792e+01  1.5000000000e+00 0. 9.
        3     1     7     0   105     0 -4.7548093294e+01  6.3336634325e+01 -3.0653696377e+01  8.4924964086e+01  5.0000000000e-01 0. 9.
       -4     1     7     0     0   105 -4.5836610611e+00 -1.6408442406e+01  1.5676712811e+01  2.3200350331e+01  1.5000000000e+00 0. 9.
#pdf   21   21  6.518997e-02  5.629655e-02  3.925896e+02  1.335621e+00  1.590005e+00
</event>
<event>
    12  9999  1.000000e+00  1.724487e+02  7.874384e-03  1.076723e-01
       21    -1     0     0   101   102  0.0000000000e+00  0.0000000000e+00  6.1005262776e+01  6.1005262776e+01  0.0000000000e+00 0. 9.
       21    -1     0     0   103   101  0.0000000000e+00  0.0000000000e+00 -1.7599249452e+03  1.7599249452e+03  0.0000000000e+00 0. 9.
        6     2     1     2   103     0 -2.1000913940e+01 -1.9164525750e+00 -1.6223194346e+03  1.6313587548e+03  1.7019497047e+02  4.017618e-13 9.
       -6     2     1     2     0   102  2.1000913940e+01  1.9164525750e+00 -7.6600247841e+01  1.8957145314e+02  1.7211922234e+02  2.539422e-13 9.
       24     2     3     0     0     0 -1.7785533911e+01 -6.6380688634e+01 -9.7471224189e+02  9.8052537184e+02  8.1506621089e+01  1.459547e-14 9.
        5     1     3     0   103     0 -3.2153800292e+00  6.4464236059e+01 -6.4760719270e+02  6.5083338301e+02  4.8000000000e+00 0. 9.
      -24     2     4     0     0     0  7.6494830494e+01  1.8168580038e+00 -2.5379657441e+01  1.1389996859e+02  8.0463132967e+01  3.215841e-14 9.
       -5     1     4     0     0   102 -5.5493916555e+01  9.9594571189e-02 -5.1220590400e+01  7.5671484554e+01  4.8000000000e+00 0. 9.
       -3     1     5     0     0   104  3.1131909432e+01 -4.0845376360e+01 -4.8764857468e+02  4.9034571778e+02  5.0000000000e-01 0. 9.
        2     1     5     0   104     0 -4.8917443342e+01 -2.5535312274e+01 -4.8706366721e+02  4.9017965406e+02  3.3000000000e-01 0. 9.
        3     1     7     0   105     0  3.5096647436e+01 -3.9258893002e+01 -1.3504971820e+01  5.4366070345e+01  5.0000000000e-01 0. 9.
       -4     1     7     0     0   105  4.1398183059e+01  4.1075751005e+01 -1.1874685621e+01  5.9533898241e+01  1.5000000000e+00 0. 9.
#pdf   21   21  9.385425e-03  2.707577e-01  1.714965e+02  8.499448e+00  1.399049e-01
</event>
<event>
    12  9999  1.000000e+00  1.794769e+02  7.877977e-03  1.071432e-01
       21    -1     0     0   101   102  0.0000000000e+00  0.0000000000e+00  1.3616563218e+02  1.3616563218e+02  0.0000000000e+00 0. 9.
       21    -1     0     0   103   101  0.0000000000e+00  0.0000000000e+00 -2.7232556969e+02  2.7232556969e+02  0.0000000000e+00 0. 9.
        6     2     1     2   103     0  5.3342154031e+01  3.5622770248e+01 -1.4294037245e+02  2.3163168949e+02  1.7060750963e+02  1.306275e-13 9.
       -6     2     1     2     0   102 -5.3342154031e+01 -3.5622770248e+01  6.7804349410e+00  1.7685951238e+02  1.6467830963e+02  8.047894e-15 9.
       24     2     3     0     0     0  4.1141424215e+01 -2.5840733598e+01 -1.4077927661e+02  1.6874822228e+02  7.9352362914e+01  1.565275e-13 9.
        5     1     3     0   103     0  1.2200729816e+01  6.1463503846e+01 -2.1610958426e+00  6.2883467210e+01  4.8000000000e+00 0. 9.
      -24     2     4     0     0     0 -4.9129367915e+00  3.7727014398e+01 -1.2550770673e+00  8.8467264736e+01  7.9858732448e+01  3.487385e-14 9.
       -5     1     4     0     0   102 -4.8429217240e+01 -7.3349784646e+01  8.0355120083e+00  8.8392247642e+01  4.8000000000e+00 0. 9.
      -13     1     5     0     0     0  3.9277569421e+01 -5.1277272030e+01 -7.9904063962e+01  1.0274607870e+02  1.0566000000e-01  4.598011e+05 9.
       14     1     5     0     0     0  1.8638547938e+00  2.5436538432e+01 -6.0875212650e+01  6.6002143580e+01  0.0000000000e+00 0. 9.
       15     1     7     0     0     0 -3.4880305236e+01  4.3828230959e+01  7.7774518095e+00  5.6579107171e+01  1.7768200000e+00  1.448379e-02 9.
      -16     1     7     0     0     0  2.9967368444e+01 -6.1012165609e+00 -9.0325288768e+00  3.1888157565e+01  0.0000000000e+00 0. 9.
#pdf   21   21  2.094856e-02  4.189624e-02  1.767295e+02  4.440751e+00  2.307748e+00
</event>
<event>
    12  9999  1.000000e+00  2.046034e+02  7.889786e-03  1.054440e-01
       21    -1     0     0   101   102  0.0000000000e+00  0.0000000000e+00  2.9780877414e+01  2.9780877414e+01  0.0000000000e+00 0. 9.
       21    -1     0     0   103   101  0.0000000000e+00  0.0000000000e+00 -1.6791600695e+03  1.6791600695e+03  0.0000000000e+00 0. 9.
        6     2     1     2   103     0  1.0252057677e+02 -4.5353183449e+01 -4.8188666365e+02  5.2375875700e+02  1.7187524258e+02  4.254368e-14 9.
       -6     2     1     2     0   102 -1.0252057677e+02  4.5353183449e+01 -1.1674925284e+03  1.1851821899e+03  1.7044248133e+02  2.684600e-14 9.
       24     2     3     0     0     0  9.0431803939e+01 -7.4806719601e+01 -2.4511399671e+02  2.8480691032e+02  8.5206503976e+01  1.048799e-13 9.
        5     1     3     0   103     0  1.2088772835e+01  2.9453536152e+01 -2.3677266694e+02  2.3895184668e+02  4.8000000000e+00 0. 9.
      -24     2     4     0     0     0  9.2458688282e-01 -1.2762805082e+01 -6.0511185435e+02  6.1040098581e+02  7.9153415311e+01  1.180221e-14 9.
       -5     1     4     0     0   102 -1.0344516366e+02  5.8115988531e+01 -5.6238067408e+02  5.7478120410e+02  4.8000000000e+00 0. 9.
       -3     1     5     0     0   104  4.7180282374e+01 -8.7879429354e+01 -1.6429698810e+02  1.9220437937e+02  5.0000000000e-01 0. 9.
        4     1     5     0   104     0  4.3251521565e+01  1.3072709752e+01 -8.0817008613e+01  9.2602530954e+01  1.5000000000e+00 0. 9.
        1     1     7     0   105     0  5.0744138854e+00 -1.4431144255e+01 -1.9567968730e+01  2.4839925544e+01  3.3000000000e-01 0. 9.
       -2     1     7     0     0   105 -4.1498270026e+00  1.6683391730e+00 -5.8554388562e+02  5.8556106027e+02  3.3000000000e-01 0. 9.
#pdf   21   21  4.581673e-03  2.583323e-01  2.040049e+02  1.432160e+01  1.516002e-01
</event>
<event>
    12  9999  1.000000e+00  2.259012e+02  7.898734e-03  1.041956e-01
       21    -1     0     0   101   102  0.0000000000e+00  0.0000000000e+00  7.1981983557e+01  7.1981983557e+01  0.0000000000e+00 0. 9.
       21    -1     0     0   102   103  0.0000000000e+00  0.0000000000e+00 -9.0279753169e+02  9.0279753169e+02  0.0000000000e+00 0. 9.
        6     2     1     2   101     0 -1.4381658949e+02 -2.3722928752e+01 -6.4134557213e+02  6.7998807153e+02  1.7266628440e+02  1.005002e-13 9.
       -6     2     1     2     0   103  1.4381658949e+02  2.3722928752e+01 -1.8946997600e+02  2.9479144372e+02  1.7250256439e+02  1.389056e-14 9.
       24     2     3     0     0     0 -1.7230600968e+01 -5.2086768960e+01 -2.8180621026e+02  2.9773146576e+02  7.8862921901e+01  7.000135e-14 9.
        5     1     3     0   101     0 -1.2658598853e+02  2.8363840208e+01 -3.5953936187e+02  3.8225660577e+02  4.8000000000e+00 0. 9.
      -24     2     4     0     0     0  1.0568651578e+02  5.8157236980e+01 -6.2272816509e+01  1.5752607486e+02  7.9904047169e+01  1.736671e-13 9.
       -5     1     4     0     0   103  3.8130073716e+01 -3.4434308228e+01 -1.2719715949e+02  1.3726536886e+02  4.8000000000e+00 0. 9.
       -1     1     5     0     0   104 -3.7279233994e+01 -1.1096937758e+01 -2.0278124723e+02  2.0647815003e+02  3.3000000000e-01 0. 9.
        2     1     5     0   104     0  2.0048633026e+01 -4.0989831203e+01 -7.9024963039e+01  9.1253315729e+01  3.3000000000e-01 0. 9.
        1     1     7     0   105     0  2.8887361273e+01  2.5349938785e+01 -6.3243879427e+01  7.4006730928e+01  3.3000000000e-01 0. 9.
       -2     1     7     0     0   105  7.6799154504e+01  3.2807298196e+01  9.7106291761e-01  8.3519343931e+01  3.3000000000e-01 0. 9.
#pdf   21   21  1.107415e-02  1.388919e-01  2.258387e+02  7.505373e+00  4.967809e-01
</event>
<event>
    12  9999  1.000000e+00  1.841576e+02  7.880295e-03  1.068049e-01
       21    -1     0     0   101   102  0.0000000000e+00  0.0000000000e+00  3.7787163497e+02  3.7787163497e+02  0.0000000000e+00 0. 9.
       21    -1     0     0   103   101  0.0000000000e+00  0.0000000000e+00 -9.1160907985e+01  9.1160907985e+01  0.0000000000e+00 0. 9.
        6     2     1     2   103     0  3.1419923281e+01  7.2361805002e+01  1.1163694679e+02  2.1209263739e+02  1.6216361042e+02  2.598579e-15 9.
       -6     2     1     2     0   102 -3.1419923281e+01 -7.2361805002e+01  1.7507378019e+02  2.5693990556e+02  1.7071568222e+02  6.346146e-15 9.
       24     2     3     0     0     0 -1.0661969456e+01  4.9526077256e+01  7.0305634773e+00  9.6949719295e+01  8.2360848268e+01  2.982584e-14 9.
        5     1     3     0   103     0  4.2081892737e+01  2.2835727746e+01  1.0460638331e+02  1.1514291810e+02  4.8000000000e+00 0. 9.
      -24     2     4     0     0     0 -5.9393702760e+01 -6.8084732120e+01  5.4122145142e+01  1.3262915095e+02  8.0611056383e+01  6.163970e-15 9.
       -5     1     4     0     0   102  2.7973779479e+01 -4.2770728821e+00  1.2095163505e+02  1.2431075461e+02  4.8000000000e+00 0. 9.
      -15     1     5     0     0     0  3.3678770187e+01  3.4334172917e+01  1.2598503749e+01  4.9749114336e+01  1.7768200000e+00  2.275147e-02 9.
       16     1     5     0     0     0 -4.4340739643e+01  1.5191904340e+01 -5.5679402719e+00  4.7200604959e+01  0.0000000000e+00 0. 9.
        1     1     7     0   104     0 -6.3082683740e+01 -8.2096098737e+01  5.6492995470e+01  1.1794389282e+02  3.3000000000e-01 0. 9.
       -2     1     7     0     0   104  3.6889809796e+00  1.4011366617e+01 -2.3708503279e+00  1.4685258132e+01  3.3000000000e-01 0. 9.
#pdf   21   21  5.813410e-02  1.402476e-02  1.803344e+02  1.619249e+00  6.216408e+00
</event>
<event>
    12  9999  1.000000e+00  1.797296e+02  7.878104e-03  1.071246e-01
        1    -1     0     0   101     0  0.0000000000e+00  0.0000000000e+00  1.0567034751e+02  1.0567034751e+02  0.0000000000e+00 0. 9.
       -1    -1     0     0     0   102  0.0000000000e+00  0.0000000000e+00 -3.1511898690e+02  3.1511898690e+02  0.0000000000e+00 0. 9.
        6     2     1     2   101     0  5.3805661043e+01 -2.1048752690e+00 -1.4122264065e+02  2.2873056436e+02  1.7168097501e+02  1.465260e-13 9.
       -6     2     1     2     0   102 -5.3805661043e+01  2.1048752690e+00 -6.8225998747e+01  1.9205877005e+02  1.7126676440e+02  9.811519e-14 9.
       24     2     3     0     0     0 -1.6144401481e+01 -4.7135529516e+01 -6.6955435864e+01  1.1710875298e+02  8.2152478909e+01  7.122926e-14 9.
        5     1     3     0   101     0  6.9950062524e+01  4.5030654247e+01 -7.4267204784e+01  1.1162181138e+02  4.8000000000e+00 0. 9.
      -24     2     4     0     0     0 -6.8969113770e+01  5.5861389054e+01 -6.6044597874e+01  1.3595626046e+02  7.9025201099e+01  1.873010e-13 9.
       -5     1     4     0     0   102  1.5163452727e+01 -5.3756513785e+01 -2.1814008734e+00  5.6102509594e+01  4.8000000000e+00 0. 9.
       -3     1     5     0     0   103 -2.4576841390e+01  1.5802100060e+01 -7.6476969944e+00  3.0207031770e+01  5.0000000000e-01 0. 9.
        4     1     5     0   103     0  8.4324399094e+00 -6.2937629576e+01 -5.9307738869e+01  8.6901721210e+01  1.5000000000e+00 0. 9.
        3     1     7     0   104     0 -6.5966787297e+01  4.2791632017e+00 -2.8092961718e+01  7.1828913134e+01  5.0000000000e-01 0. 9.
       -4     1     7     0     0   104 -3.0023264730e+00  5.1582225852e+01 -3.7951636155e+01  6.4127347326e+01  1.5000000000e+00 0. 9.
#pdf    1   -1  1.625698e-02  4.847984e-02  1.795321e+02  5.823676e-01  1.950356e-01
</event>
<event>
    12  9999  1.000000e+00  1.942736e+02  7.885113e-03  1.061092e-01
       21    -1     0     0   101   102  0.0000000000e+00  0.0000000000e+00  4.2705691295e+02  4.2705691295e+02  0.0000000000e+00 0. 9.
       21    -1     0     0   103   101  0.0000000000e+00  0.0000000000e+00 -9.8889134952e+01  9.8889134952e+01  0.0000000000e+00 0. 9.
        6     2     1     2   103     0 -8.8861087706e+01 -8.2364460802e+00  7.8898791120e+01  2.1035667141e+02  1.7338044300e+02  9.516358e-14 9.
       -6     2     1     2     0   102  8.8861087706e+01  8.2364460802e+00  2.4926898688e+02  3.1558937650e+02  1.7174834725e+02  2.941461e-14 9.
       24     2     3     0     0     0 -6.0086201462e+01  3.5616615290e+01  1.0699967793e+02  1.5065922666e+02  7.9814639063e+01  3.806644e-14 9.
        5     1     3     0   103     0 -2.8774886244e+01 -4.3853061370e+01 -2.8100886815e+01  5.9697444750e+01  4.8000000000e+00 0. 9.
      -24     2     4     0     0     0  1.2437041655e+02 -7.2409412314e+00  1.6001047261e+02  2.1816974642e+02  8.0462756401e+01  1.016843e-14 9.
       -5     1     4     0     0   102 -3.5509328844e+01  1.5477387312e+01  8.9258514276e+01  9.7419630074e+01  4.8000000000e+00 0. 9.
       -3     1     5     0     0   104 -3.1505667964e+01  3.6161499897e+01  9.3058518513e+00  4.8858060413e+01  5.0000000000e-01 0. 9.
        4     1     5     0   104     0 -2.8580533498e+01 -5.4488460739e-01  9.7693826083e+01  1.0180116625e+02  1.5000000000e+00 0. 9.
       13     1     7     0     0     0  2.0624227589e+01 -2.7180336073e+01  1.1680164990e+01  3.6063372706e+01  1.0566000000e-01  2.586471e+05 9.
      -14     1     7     0     0     0  1.0374618896e+02  1.9939394842e+01  1.4833030762e+02  1.8210637372e+02  0.0000000000e+00 0. 9.
#pdf   21   21  6.570106e-02  1.521371e-02  1.935501e+02  1.398422e+00  5.816289e+00
</event>
<event>
    12  9999  1.000000e+00  2.012542e+02  7.888296e-03  1.056550e-01
       21    -1     0     0   101   102  0.0000000000e+00  0.0000000000e+00  2.9173913494e+02  2.9173913494e+02  0.0000000000e+00 0. 9.
       21    -1     0     0   103   101  0.0000000000e+00  0.0000000000e+00 -1.7209124191e+02  1.7209124191e+02  0.0000000000e+00 0. 9.
        6     2     1     2   103     0  1.0574591827e+02 -3.1016019904e+00 -4.1974660898e+01  2.0620047937e+02  1.7194460261e+02  5.085583e-14 9.
       -6     2     1     2     0   102 -1.0574591827e+02  3.1016019904e+00  1.6162255393e+02  2.5762989748e+02  1.7046845740e+02  2.441895e-13 9.
       24     2     3     0     0     0  4.2820002352e+01 -6.4808386533e+01 -4.9638654266e+01  1.1760490980e+02  7.3029030149e+01  2.593163e-14 9.
        5     1     3     0   103     0  6.2925915923e+01  6.1706784542e+01  7.6639933676e+00  8.8595569571e+01  4.8000000000e+00 0. 9.
      -24     2     4     0     0     0 -6.0425458633e+01 -4.0696576991e+01  3.2648024920e+01  1.1399949095e+02  8.1379008207e+01  1.455787e-13 9.
       -5     1     4     0     0   102 -4.5320459641e+01  4.3798178982e+01  1.2897452901e+02  1.4363040652e+02  4.8000000000e+00 0. 9.
      -13     1     5     0     0     0 -1.8766862118e+00 -1.7446105688e-02 -3.7988411688e+01  3.8034889800e+01  1.0566000000e-01  7.811785e+05 9.
       14     1     5     0     0     0  4.4696688564e+01 -6.4790940427e+01 -1.1650242577e+01  7.9570019996e+01  0.0000000000e+00 0. 9.
        3     1     7     0   104     0  1.2284302206e+01 -3.2651657083e+01  2.8843606260e+00  3.5008632180e+01  5.0000000000e-01 0. 9.
       -4     1     7     0     0   104 -7.2709760839e+01 -8.0449199086e+00  2.9763664294e+01  7.8990858773e+01  1.5000000000e+00 0. 9.
#pdf   21   21  4.488294e-02  2.647558e-02  2.006273e+02  2.133348e+00  3.588677e+00
</event>
<event>
    12  9999  1.000000e+00  1.824385e+02  7.879450e-03  1.069279e-01
       21    -1     0     0   101   102  0.0000000000e+00  0.0000000000e+00  8.6603209320e+02  8.6603209320e+02  0.0000000000e+00 0. 9.
       21    -1     0     0   102   103  0.0000000000e+00  0.0000000000e+00 -7.5087486892e+01  7.5087486892e+01  0.0000000000e+00 0. 9.
        6     2     1     2   101     0 -4.8357755039e+01 -4.2962414947e+01  7.2459927239e+02  7.4729140144e+02  1.7092715276e+02  3.652874e-13 9.
       -6     2     1     2     0   103  4.8357755039e+01  4.2962414947e+01  6.6345333925e+01  1.9382817866e+02  1.7024517009e+02  8.298109e-13 9.
       24     2     3     0     0     0 -2.3296248648e+01 -8.9849421240e+01  5.8677871562e+02  5.9949418790e+02  8.0426280062e+01  3.831326e-13 9.
        5     1     3     0   101     0 -2.5061506391e+01  4.6887006293e+01  1.3782055677e+02  1.4779721354e+02  4.8000000000e+00 0. 9.
      -24     2     4     0     0     0  2.3699046965e+01 -3.7487516844e-01  9.9249489794e+01  1.3389574944e+02  8.6693858693e+01  1.846694e-13 9.
       -5     1     4     0     0   103  2.4658708073e+01  4.3337290116e+01 -3.2904155870e+01  5.9932429217e+01  4.8000000000e+00 0. 9.
       -1     1     5     0     0   104 -8.7239785145e+00 -7.2623769454e+01  2.1638729606e+02  2.2841604691e+02  3.3000000000e-01 0. 9.
        2     1     5     0   104     0 -1.4572270133e+01 -1.7225651786e+01  3.7039141956e+02  3.7107814099e+02  3.3000000000e-01 0. 9.
        3     1     7     0   105     0  5.2603796294e+01  1.4826532892e+01  4.6124273088e+01  7.1517019164e+01  5.0000000000e-01 0. 9.
       -4     1     7     0     0   105 -2.8904749329e+01 -1.5201408060e+01  5.3125216706e+01  6.2378730276e+01  1.5000000000e+00 0. 9.
#pdf   21   21  1.332357e-01  1.155192e-02  1.821199e+02  5.451728e-01  7.252903e+00
</event>
<event>
    12  9999  1.000000e+00  2.075476e+02  7.891076e-03  1.052620e-01
        2    -1     0     0   101     0  0.0000000000e+00  0.0000000000e+00  1.4822257610e+03  1.4822257610e+03  0.0000000000e+00 0. 9.
       -2    -1     0     0     0   102  0.0000000000e+00  0.0000000000e+00 -3.1196998402e+01  3.1196998402e+01  0.0000000000e+00 0. 9.
        6     2     1     2   101     0  1.1589220885e+02  2.3655232487e+01  5.2737641282e+02  5.6672801308e+02  1.7048221584e+02  4.989444e-14 9.
       -6     2     1     2     0   102 -1.1589220885e+02 -2.3655232487e+01  9.2365234982e+02  9.4669474636e+02  1.7060687372e+02  9.446781e-14 9.
       24     2     3     0     0     0  9.5999487910e+01  1.4634809196e+01  1.8424930390e+02  2.2287289642e+02  7.9337523595e+01  1.284888e-14 9.
        5     1     3     0   101     0  1.9892720936e+01  9.0204232911e+00  3.4312710892e+02  3.4385511666e+02  4.8000000000e+00 0. 9.
      -24     2     4     0     0     0 -1.4117452008e+02 -3.4761444432e+01  8.1317959131e+02  8.3272188302e+02  1.0500515986e+02  2.104200e-14 9.
       -5     1     4     0     0   102  2.5282311234e+01  1.1106211945e+01  1.1047275851e+02  1.1397286334e+02  4.8000000000e+00 0. 9.
       -1     1     5     0     0   103  1.7058741160e+01 -2.4744699425e+01  8.4620558101e+01  8.9800047622e+01  3.3000000000e-01 0. 9.
        2     1     5     0   103     0  7.8940746751e+01  3.9379508621e+01  9.9628745800e+01  1.3307284880e+02  3.3000000000e-01 0. 9.
        3     1     7     0   104     0 -1.2469044398e+02 -4.9863405654e+01  4.6993040095e+02  4.8874215879e+02  5.0000000000e-01 0. 9.
       -4     1     7     0     0   104 -1.6484076105e+01  1.5101961222e+01  3.4324919036e+02  3.4397972423e+02  1.5000000000e+00 0. 9.
#pdf    2   -2  2.280347e-01  4.799538e-03  2.074964e+02  4.067097e-01  7.813817e-01
</event>
<event>
    12  9999  1.000000e+00  2.205218e+02  7.896554e-03  1.044967e-01
       21    -1     0     0   101   102  0.0000000000e+00  0.0000000000e+00  5.2293034328e+02  5.2293034328e+02  0.0000000000e+00 0. 9.
       21    -1     0     0   102   103  0.0000000000e+00  0.0000000000e+00 -1.1365400670e+02  1.1365400670e+02  0.0000000000e+00 0. 9.
        6     2     1     2   101     0 -1.3760862271e+02 -2.1897189773e+01  3.4020020361e+02  4.0532013844e+02  1.7068279386e+02  2.187088e-14 9.
       -6     2     1     2     0   103  1.3760862271e+02  2.1897189773e+01  6.9076132971e+01  2.3126421155e+02  1.7116075319e+02  2.797282e-13 9.
       24     2     3     0     0     0 -1.0376126150e+02  5.5192871536e+00  1.1330080434e+02  1.7422776630e+02  8.1984025079e+01  3.640761e-13 9.
        5     1     3     0   101     0 -3.3847361217e+01 -2.7416476927e+01  2.2689939927e+02  2.3109237214e+02  4.8000000000e+00 0. 9.
      -24     2     4     0     0     0  9.9860522751e+01  1.9435696385e+01  1.1326717557e+02  1.7289584472e+02  8.1936864489e+01  1.455501e-13 9.
       -5     1     4     0     0   103  3.7748099962e+01  2.4614933884e+00 -4.4191042597e+01  5.8368366829e+01  4.8000000000e+00 0. 9.
       -3     1     5     0     0   104 -5.2810682429e+00 -2.4887296384e+01  4.1238797033e+01  4.8457771140e+01  5.0000000000e-01 0. 9.
        4     1     5     0   104     0 -9.8480193253e+01  3.0406583538e+01  7.2062007304e+01  1.2576999516e+02  1.5000000000e+00 0. 9.
        1     1     7     0   105     0  4.7742373547e+00  2.0853504883e+01  6.0429820965e+01  6.4105648504e+01  3.3000000000e-01 0. 9.
       -2     1     7     0     0   105  9.5086285396e+01 -1.4178084983e+00  5.2837354603e+01  1.0879019622e+02  3.3000000000e-01 0. 9.
#pdf   21   21  8.045082e-02  1.748523e-02  2.203366e+02  1.079251e+00  5.169605e+00
</event>
<event>
    12  9999  1.000000e+00  1.787204e+02  7.877597e-03  1.071989e-01
       21    -1     0     0   101   102  0.0000000000e+00  0.0000000000e+00  1.0625255998e+02  1.0625255998e+02  0.0000000000e+00 0. 9.
       21    -1     0     0   103   101  0.0000000000e+00  0.0000000000e+00 -1.7123185639e+03  1.7123185639e+03  0.0000000000e+00 0. 9.
        6     2     1     2   103     0  2.1289040531e+00  5.3527159200e+01 -1.6287819883e+03  1.6385757604e+03  1.7067532896e+02  4.033035e-13 9.
       -6     2     1     2     0   102 -2.1289040531e+00 -5.3527159200e+01  2.2715984425e+01  1.7999536350e+02  1.7033093063e+02  3.220483e-13 9.
       24     2     3     0     0     0 -3.9193012980e+01 -1.7048855627e+01 -1.0535166708e+03  1.0575063151e+03  8.1212529872e+01  2.107121e-13 9.
        5     1     3     0   103     0  4.1321917033e+01  7.0576014827e+01 -5.7526531754e+02  5.8106944530e+02  4.8000000000e+00 0. 9.
      -24     2     4     0     0     0 -2.1892719797e+01 -5.0200875879e+01 -4.8634609323e+01  1.0572814461e+02  7.6247598124e+01  6.195565e-14 9.
       -5     1     4     0     0   102  1.9763815744e+01 -3.3262833207e+00  7.1350593748e+01  7.4267218890e+01  4.8000000000e+00 0. 9.
      -15     1     5     0     0     0 -9.9502589315e-01 -2.3694940898e+01 -8.4980983463e+02  8.5014254829e+02  1.7768200000e+00  4.999532e-02 9.
       16     1     5     0     0     0 -3.8197987087e+01  6.6460852709e+00 -2.0370683618e+02  2.0736376678e+02  0.0000000000e+00 0. 9.
       15     1     7     0     0     0  2.2625233860e+01  4.5198045102e+00 -9.1217941764e+00  2.4873561432e+01  1.7768200000e+00  3.721764e-03 9.
      -16     1     7     0     0     0 -4.4517953657e+01 -5.4720680389e+01 -3.9512815146e+01  8.0854583178e+01  0.0000000000e+00 0. 9.
#pdf   21   21  1.634655e-02  2.634336e-01  1.785562e+02  5.483340e+00  1.486770e-01
</event>
<event>
    12  9999  1.000000e+00  2.440619e+02  7.905735e-03  1.032414e-01
       21    -1     0     0   101   102  0.0000000000e+00  0.0000000000e+00  3.9165604792e+02  3.9165604792e+02  0.0000000000e+00 0. 9.
       21    -1     0     0   103   101  0.0000000000e+00  0.0000000000e+00 -1.9090716259e+02  1.9090716259e+02  0.0000000000e+00 0. 9.
        6     2     1     2   103     0  1.6672332843e+02  4.9586595449e+01 -3.0972408169e+01  2.4602414643e+02  1.7121066518e+02  1.189520e-13 9.
       -6     2     1     2     0   102 -1.6672332843e+02 -4.9586595449e+01  2.3172129350e+02  3.3653906407e+02  1.7119662700e+02  1.178896e-13 9.
       24     2     3     0     0     0  3.0188107114e+01 -1.1776661986e+01  1.9897080827e+01  8.7853160055e+01  7.9197678802e+01  2.364350e-14 9.
        5     1     3     0   103     0  1.3653522131e+02  6.1363257435e+01 -5.0869488996e+01  1.5817098638e+02  4.8000000000e+00 0. 9.
      -24     2     4     0     0     0 -5.9259989023e+01  3.1562827115e+01  6.9206778218e+01  1.2542865273e+02  8.0217270092e+01  2.191492e-13 9.
       -5     1     4     0     0   102 -1.0746333940e+02 -8.1149422564e+01  1.6251451528e+02  2.1111041134e+02  4.8000000000e+00 0. 9.
       -3     1     5     0     0   104  2.5680982456e+01 -1.4526313971e+00  4.9696200645e+01  5.5960569658e+01  5.0000000000e-01 0. 9.
        4     1     5     0   104     0  4.5071246582e+00 -1.0324030589e+01 -2.9799119819e+01  3.1892590397e+01  1.5000000000e+00 0. 9.
        1     1     7     0   105     0 -7.4997358069e+01  6.9416079766e+00  4.7840235230e+01  8.9227723525e+01  3.3000000000e-01 0. 9.
       -2     1     7     0     0   105  1.5737369046e+01  2.4621219138e+01  2.1366542988e+01  3.6200929209e+01  3.3000000000e-01 0. 9.
#pdf   21   21  6.025478e-02  2.937033e-02  2.440569e+02  1.520201e+00  3.232388e+00
</event>
<event>
    12  9999  1.000000e+00  1.772823e+02  7.876870e-03  1.073056e-01
       21    -1     0     0   101   102  0.0000000000e+00  0.0000000000e+00  1.5256260139e+02  1.5256260139e+02  0.0000000000e+00 0. 9.
       21    -1     0     0   103   101  0.0000000000e+00  0.0000000000e+00 -2.0609820423e+02  2.0609820423e+02  0.0000000000e+00 0. 9.
        6     2     1     2   103     0 -3.7208306091e+01  2.5099032333e+00 -2.4067047740e+01  1.8110923288e+02  1.7558637131e+02  3.590147e-14 9.
       -6     2     1     2     0   102  3.7208306091e+01 -2.5099032333e+00 -2.9468555098e+01  1.7755157273e+02  1.7107135232e+02  7.457768e-15 9.
       24     2     3     0     0     0 -9.1477925840e+01 -1.4136454491e+01 -1.4434381667e+01  1.2333275749e+02  8.0215755517e+01  5.280999e-14 9.
        5     1     3     0   103     0  5.4269619749e+01  1.6646357724e+01 -9.6326660735e+00  5.7776475393e+01  4.8000000000e+00 0. 9.
      -24     2     4     0     0     0  6.9066743625e+00 -5.1576268202e+01  2.4245820703e+01  9.8596071189e+01  8.0159290416e+01  1.695737e-14 9.
       -5     1     4     0     0   102  3.0301631729e+01  4.9066364969e+01 -5.3714375801e+01  7.8955501546e+01  4.8000000000e+00 0. 9.
      -13     1     5     0     0     0 -2.1485482898e+01 -2.4637322827e+01 -3.6689774207e+01  4.9140353548e+01  1.0566000000e-01  4.566291e+04 9.
       14     1     5     0     0     0 -6.9992442942e+01  1.0500868336e+01  2.2255392540e+01  7.4192403937e+01  0.0000000000e+00 0. 9.
        1     1     7     0   104     0  3.8480694137e+01 -4.3932697128e+01  6.3259821302e-01  5.8406804216e+01  3.3000000000e-01 0. 9.
       -4     1     7     0     0   104 -3.1574019775e+01 -7.6435710742e+00  2.3613222490e+01  4.0189266973e+01  1.5000000000e+00 0. 9.
#pdf   21   21  2.347117e-02  3.170742e-02  1.750890e+02  4.017618e+00  3.043116e+00
</event>
<event>
    12  9999  1.000000e+00  2.091928e+02  7.891789e-03  1.051617e-01
       21    -1     0     0   101   102  0.0000000000e+00  0.0000000000e+00  1.1799105411e+03  1.1799105411e+03  0.0000000000e+00 0. 9.
       21    -1     0     0   103   101  0.0000000000e+00  0.0000000000e+00 -5.3839087710e+01  5.3839087710e+01  0.0000000000e+00 0. 9.
        6     2     1     2   103     0 -8.2052364968e+01  8.8211375752e+01  2.1842746037e+02  3.0224593118e+02  1.7066988621e+02  4.782637e-13 9.
       -6     2     1     2     0   102  8.2052364968e+01 -8.8211375752e+01  9.0764399300e+02  9.3150369762e+02  1.7137001850e+02  2.463516e-14 9.
       24     2     3     0     0     0  1.0499607744e+01  6.2662779717e-01  8.3784902539e+01  1.1680425811e+02  8.0701241595e+01  1.846534e-13 9.
        5     1     3     0   103     0 -9.2551972713e+01  8.7584747955e+01  1.3464255784e+02  1.8544167306e+02  4.8000000000e+00 0. 9.
      -24     2     4     0     0     0  7.3872336836e+01 -8.8787148857e+01  9.1069297447e+02  9.2152468650e+02  8.0658379214e+01  7.075450e-14 9.
       -5     1     4     0     0   102  8.1800281322e+00  5.7577310478e-01 -3.0489814662e+00  9.9790111180e+00  4.8000000000e+00 0. 9.
       -1     1     5     0     0   104  1.4328680375e+01  3.2499966600e+01  1.0888395723e+01  3.7151379136e+01  3.3000000000e-01 0. 9.
        2     1     5     0   104     0 -3.8290726304e+00 -3.1873338803e+01  7.2896506815e+01  7.9652878978e+01  3.3000000000e-01 0. 9.
        3     1     7     0   105     0  2.9073858220e+01  1.9913464344e+00  3.8954322399e+02  3.9063208784e+02  5.0000000000e-01 0. 9.
       -4     1     7     0     0   105  4.4798478616e+01 -9.0778495291e+01  5.2114975048e+02  5.3089259866e+02  1.5000000000e+00 0. 9.
#pdf   21   21  1.815247e-01  8.282937e-03  2.089068e+02  3.183615e-01  9.369395e+00
</event>
<event>
    12  9999  1.000000e+00  2.410851e+02  7.904623e-03  1.033917e-01
       21    -1     0     0   101   102  0.0000000000e+00  0.0000000000e+00  1.3710220883e+02  1.3710220883e+02  0.0000000000e+00 0. 9.
       21    -1     0     0   102   103  0.0000000000e+00  0.0000000000e+00 -4.2674249371e+02  4.2674249371e+02  0.0000000000e+00 0. 9.
        6     2     1     2   101     0 -1.4040226225e+02 -9.5301868662e+01 -1.2193728490e+02  2.7016102659e+02  1.7123970749e+02  9.730943e-14 9.
       -6     2     1     2     0   103  1.4040226225e+02  9.5301868662e+01 -1.6770299998e+02  2.9368367595e+02  1.7126168252e+02  1.430240e-13 9.
       24     2     3     0     0     0  2.7595555004e+00 -1.6568696245e+01 -5.3390596336e+01  9.2915696566e+01  7.4166259508e+01  3.688001e-14 9.
        5     1     3     0   101     0 -1.4316181775e+02 -7.8733172417e+01 -6.8546688567e+01  1.7724533002e+02  4.8000000000e+00 0. 9.
      -24     2     4     0     0     0  1.2929094638e+02  6.7728599893e+00 -7.1302511132e+01  1.6224189809e+02  6.6905642155e+01  1.367136e-13 9.
       -5     1     4     0     0   103  1.1111315865e+01  8.8529008673e+01 -9.6400488847e+01  1.3144177786e+02  4.8000000000e+00 0. 9.
       -1     1     5     0     0   104  1.1529499426e+01  2.5470527138e+01 -3.8249078579e+01  4.7379088445e+01  3.3000000000e-01 0. 9.
        2     1     5     0   104     0 -8.7699439259e+00 -4.2039223383e+01 -1.5141517757e+01  4.5536608121e+01  3.3000000000e-01 0. 9.
        1     1     7     0   105     0  6.7025064852e+01  2.9798959016e+01 -1.4284226934e+01  7.4729413994e+01  3.3000000000e-01 0. 9.
       -2     1     7     0     0   105  6.2265881532e+01 -2.3026099026e+01 -5.7018284199e+01  8.7512484094e+01  3.3000000000e-01 0. 9.
#pdf   21   21  2.109265e-02  6.565269e-02  2.410773e+02  4.384544e+00  1.375450e+00
</event>
<event>
    12  9999  1.000000e+00  1.751931e+02  7.875804e-03  1.074625e-01
       21    -1     0     0   101   102  0.0000000000e+00  0.0000000000e+00  1.6392994724e+03  1.6392994724e+03  0.0000000000e+00 0. 9.
       21    -1     0     0   103   101  0.0000000000e+00  0.0000000000e+00 -1.7250543107e+02  1.7250543107e+02  0.0000000000e+00 0. 9.
        6     2     1     2   103     0 -8.5324026523e-01 -3.4196797273e+01 -1.2202150599e+02  2.1333801853e+02  1.7162084157e+02  1.171826e-15 9.
       -6     2     1     2     0   102  8.5324026523e-01  3.4196797273e+01  1.5888155473e+03  1.5984668849e+03  1.7202148093e+02  1.278599e-13 9.
       24     2     3     0     0     0  5.3361324078e+01  1.8798145043e+01 -5.9364403917e+01  1.1486652347e+02  8.0432484718e+01  2.363955e-14 9.
        5     1     3     0   103     0 -5.4214564344e+01 -5.2994942317e+01 -6.2657102073e+01  9.8471495054e+01  4.8000000000e+00 0. 9.
      -24     2     4     0     0     0 -6.1959220945e+01  4.4172274136e+01  1.0865448917e+03  1.0921628588e+03  8.0310482146e+01  9.483779e-14 9.
       -5     1     4     0     0   102  6.2812461210e+01 -9.9754768625e+00  5.0227065556e+02  5.0630402611e+02  4.8000000000e+00 0. 9.
       -3     1     5     0     0   104  4.4794775097e+00  2.8944904740e+01 -5.7911644574e+01  6.4899012368e+01  5.0000000000e-01 0. 9.
        4     1     5     0   104     0  4.8881846569e+01 -1.0146759696e+01 -1.4527593432e+00  4.9967511105e+01  1.5000000000e+00 0. 9.
        1     1     7     0   105     0 -1.9157365983e+01  4.8189955526e+01  8.6050782511e+02  8.6206908219e+02  3.3000000000e-01 0. 9.
       -4     1     7     0     0   105 -4.2801854962e+01 -4.0176813904e+00  2.2603706662e+02  2.3009377662e+02  1.5000000000e+00 0. 9.
#pdf   21   21  2.521999e-01  2.653930e-02  1.749967e+02  1.661463e-01  3.595185e+00
</event>
<event>
    12  9999  1.000000e+00  2.488814e+02  7.907508e-03  1.030029e-01
       21    -1     0     0   101   102  0.0000000000e+00  0.0000000000e+00  5.4434788335e+02  5.4434788335e+02  0.0000000000e+00 0. 9.
       21    -1     0     0   103   101  0.0000000000e+00  0.0000000000e+00 -1.1861367935e+02  1.1861367935e+02  0.0000000000e+00 0. 9.
        6     2     1     2   103     0 -1.4631499869e+02  1.0630905479e+02  1.4571430263e+02  2.8806852129e+02  1.7041455628e+02  2.237262e-13 9.
       -6     2     1     2     0   102  1.4631499869e+02 -1.0630905479e+02  2.8001990136e+02  3.7489304141e+02  1.7153411721e+02  3.608795e-13 9.
       24     2     3     0     0     0 -1.5857813042e+02  6.5415950763e+01  1.5192812319e+02  2.4466020500e+02  8.5733256297e+01  7.741529e-14 9.
        5     1     3     0   103     0  1.2263131726e+01  4.0893104032e+01 -6.2138205555e+00  4.3408316288e+01  4.8000000000e+00 0. 9.
      -24     2     4     0     0     0  1.1405369556e+02 -1.3938090497e+02  1.8675234552e+02  2.7069891525e+02  7.7241064333e+01  1.745410e-13 9.
       -5     1     4     0     0   102  3.2261303128e+01  3.3071850177e+01  9.3267555840e+01  1.0419412616e+02  4.8000000000e+00 0. 9.
      -11     1     5     0     0     0 -1.0285013047e+02  6.1913196962e+01  1.4522867939e+02  1.8842176789e+02  5.1100000000e-04 0. 9.
       12     1     5     0     0     0 -5.5727999944e+01  3.5027538011e+00  6.6994438006e+00  5.6238437116e+01  0.0000000000e+00 0. 9.
        1     1     7     0   104     0  8.8579767208e+01 -4.8413596459e+01  1.0656707883e+02  1.4678863264e+02  3.3000000000e-01 0. 9.
       -2     1     7     0     0   104  2.5473928354e+01 -9.0967308513e+01  8.0185266687e+01  1.2391028261e+02  3.3000000000e-01 0. 9.
#pdf   21   21  8.374583e-02  1.824826e-02  2.484971e+02  1.013691e+00  4.973883e+00
</event>
<event>
    12  9999  1.000000e+00  2.918604e+02  7.921978e-03  1.011008e-01
       -2    -1     0     0     0   101  0.0000000000e+00  0.0000000000e+00  3.7191199655e+01  3.7191199655e+01  0.0000000000e+00 0. 9.
        2    -1     0     0   102     0  0.0000000000e+00  0.0000000000e+00 -2.4292465466e+03  2.4292465466e+03  0.0000000000e+00 0. 9.
       -6     2     1     2     0   101 -2.1415280124e+01  2.3513437924e+02 -8.9845070176e+02  9.4444741607e+02  1.7035394827e+02  2.157980e-13 9.
        6     2     1     2   102     0  2.1415280124e+01 -2.3513437924e+02 -1.4936046452e+03  1.5219903302e+03  1.7278002941e+02  2.782393e-15 9.
      -24     2     3     0     0     0  9.3624293220e+00  3.4207846855e+01 -2.7136071269e+02  2.8521784057e+02  8.0341448316e+01  1.164962e-13 9.
       -5     1     3     0     0   101 -3.0777709446e+01  2.0092653238e+02 -6.2708998908e+02  6.5922957550e+02  4.8000000000e+00 0. 9.
       24     2     4     0     0     0  6.0540317827e+01 -2.1690752832e+02 -1.3778345534e+03  1.3983426823e+03  7.8868211419e+01  8.327243e-15 9.
        5     1     4     0   102     0 -3.9125037703e+01 -1.8226850919e+01 -1.1577009184e+02  1.2364764791e+02  4.8000000000e+00 0. 9.
       13     1     5     0     0     0  3.7872953814e+01  4.3303231721e+01 -1.9050258245e+02  1.9899943616e+02  1.0566000000e-01  1.513896e+05 9.
      -14     1     5     0     0     0 -2.8510524492e+01 -9.0953848659e+00 -8.0858130241e+01  8.6218404408e+01  0.0000000000e+00 0. 9.
       -1     1     7     0     0   103  3.5978038170e+01 -2.8789348594e+01 -3.6458780299e+02  3.6748825942e+02  3.3000000000e-01 0. 9.
        2     1     7     0   103     0  2.4562279657e+01 -1.8811817972e+02 -1.0132467504e+03  1.0308544229e+03  3.3000000000e-01 0. 9.
#pdf   -2    2  5.721723e-03  3.737302e-01  2.911482e+02  7.303228e-01  2.037212e-01
</event>
<event>
    12  9999  1.000000e+00  2.032161e+02  7.889172e-03  1.055308e-01
       21    -1     0     0   101   102  0.0000000000e+00  0.0000000000e+00  6.2703112371e+02  6.2703112371e+02  0.0000000000e+00 0. 9.
       21    -1     0     0   102   103  0.0000000000e+00  0.0000000000e+00 -6.5875077497e+01  6.5875077497e+01  0.0000000000e+00 0. 9.
        6     2     1     2   101     0 -9.4101112722e+01 -5.4728188656e+01  2.8633997566e+02  3.5143777315e+02  1.7224323697e+02  1.767834e-13 9.
       -6     2     1     2     0   103  9.4101112722e+01  5.4728188656e+01  2.7481607055e+02  3.4146842806e+02  1.7095795003e+02  1.592770e-13 9.
       24     2     3     0     0     0 -3.0947077324e+01 -4.4058549274e+01  5.6490275529e+01  1.1278279616e+02  8.1424385292e+01  5.109888e-14 9.
        5     1     3     0   101     0 -6.3154035398e+01 -1.0669639382e+01  2.2984970013e+02  2.3865497699e+02  4.8000000000e+00 0. 9.
      -24     2     4     0     0     0  4.2669981762e+01 -9.8299112083e+00  2.2873281762e+02  2.4681318156e+02  8.1735489449e+01  8.142706e-14 9.
       -5     1     4     0     0   103  5.1431130960e+01  6.4558099865e+01  4.6083252932e+01  9.4655246504e+01  4.8000000000e+00 0. 9.
       -1     1     5     0     0   104 -3.0832534514e+01  1.2666873182e+01  4.3118722270e+01  5.4501632737e+01  3.3000000000e-01 0. 9.
        2     1     5     0   104     0 -1.1454280992e-01 -5.6725422456e+01  1.3371553259e+01  5.8281163419e+01  3.3000000000e-01 0. 9.
        1     1     7     0   105     0  5.5898150608e+01  2.0451765915e+01  1.5382711848e+02  1.6494171471e+02  3.3000000000e-01 0. 9.
       -2     1     7     0     0   105 -1.3228168846e+01 -3.0281677123e+01  7.4905699136e+01  8.1871466846e+01  3.3000000000e-01 0. 9.
#pdf   21   21  9.646633e-02  1.013463e-02  2.026742e+02  8.576411e-01  8.036099e+00
</event>
<event>
    12  9999  1.000000e+00  2.471989e+02  7.906893e-03  1.030855e-01
       21    -1     0     0   101   102  0.0000000000e+00  0.0000000000e+00  1.7365379300e+03  1.7365379300e+03  0.0000000000e+00 0. 9.
       21    -1     0     0   103   101  0.0000000000e+00  0.0000000000e+00 -3.7081720669e+01  3.7081720669e+01  0.0000000000e+00 0. 9.
        6     2     1     2   103     0  2.2607317945e+01 -1.7648287318e+02  6.5049796650e+02  6.9600530671e+02  1.7210022426e+02  1.538085e-13 9.
       -6     2     1     2     0   102 -2.2607317945e+01  1.7648287318e+02  1.0489582429e+03  1.0776143440e+03  1.7111979361e+02  9.332478e-14 9.
       24     2     3     0     0     0  4.4370018640e+01 -1.2081710973e+02  2.5944973506e+02  3.0038673829e+02  7.9702916886e+01  7.097498e-14 9.
        5     1     3     0   103     0 -2.1762700695e+01 -5.5665763448e+01  3.9104823145e+02  3.9561856842e+02  4.8000000000e+00 0. 9.
      -24     2     4     0     0     0 -7.5139460840e+01  1.5108030830e+02  8.4938208852e+02  8.6962733065e+02  7.9564840083e+01  2.637643e-14 9.
       -5     1     4     0     0   102  5.2532142895e+01  2.5402564877e+01  1.9957615434e+02  2.0798701334e+02  4.8000000000e+00 0. 9.
      -15     1     5     0     0     0  6.7769758277e+01 -8.9372765507e+01  1.9415165297e+02  2.2422812667e+02  1.7768200000e+00  8.763964e-02 9.
       16     1     5     0     0     0 -2.3399739637e+01 -3.1444344225e+01  6.5298082090e+01  7.6158611617e+01  0.0000000000e+00 0. 9.
       15     1     7     0     0     0 -4.4875833416e+01  1.2248227573e+02  4.6362525903e+02  4.8162982278e+02  1.7768200000e+00  3.057423e-01 9.
      -16     1     7     0     0     0 -3.0263627424e+01  2.8598032576e+01  3.8575682949e+02  3.8799750787e+02  0.0000000000e+00 0. 9.
#pdf   21   21  2.671597e-01  5.704880e-03  2.468588e+02  1.334157e-01  1.235417e+01
</event>
<event>
    12  9999  1.000000e+00  2.255509e+02  7.898594e-03  1.042149e-01
       21    -1     0     0   101   102  0.0000000000e+00  0.0000000000e+00  1.5994672095e+03  1.5994672095e+03  0.0000000000e+00 0. 9.
       21    -1     0     0   102   103  0.0000000000e+00  0.0000000000e+00 -4.5697396890e+01  4.5697396890e+01  0.0000000000e+00 0. 9.
        6     2     1     2   101     0 -7.5152308180e+01  1.2579325336e+02  1.2307021744e+03  1.2512218304e+03  1.7162871242e+02  4.567686e-14 9.
       -6     2     1     2     0   103  7.5152308180e+01 -1.2579325336e+02  3.2306763827e+02  3.9394277599e+02  1.7130790946e+02  1.450039e-13 9.
       24     2     3     0     0     0  1.9695003411e+01  8.2470372421e+01  5.2868730180e+02  5.4148891881e+02  8.0689098522e+01  3.933487e-14 9.
        5     1     3     0   101     0 -9.4847311592e+01  4.3322880936e+01  7.0201487258e+02  7.0973291163e+02  4.8000000000e+00 0. 9.
      -24     2     4     0     0     0  8.0948748122e+01 -1.5477092168e+02  3.0013965868e+02  3.5623288040e+02  7.9443768432e+01  9.766584e-14 9.
       -5     1     4     0     0   103 -5.7964399411e+00  2.8977668327e+01  2.2927979594e+01  3.7709895597e+01  4.8000000000e+00 0. 9.
       -3     1     5     0     0   104 -2.7594724833e+01  4.9180122231e+01  3.1999645382e+02  3.2492789003e+02  5.0000000000e-01 0. 9.
        4     1     5     0   104     0  4.7289728244e+01  3.3290250190e+01  2.0869084798e+02  2.1656102878e+02  1.5000000000e+00 0. 9.
        1     1     7     0   105     0  2.9059215782e+01 -1.2465665439e+02  1.6883199719e+02  2.1186805253e+02  3.3000000000e-01 0. 9.
       -2     1     7     0     0   105  5.1889532340e+01 -3.0114267295e+01  1.3130766148e+02  1.4436482787e+02  3.3000000000e-01 0. 9.
#pdf   21   21  2.460719e-01  7.030369e-03  2.254290e+02  1.669903e-01  1.059398e+01
</event>
<event>
    12  9999  1.000000e+00  2.916967e+02  7.921926e-03  1.011074e-01
       21    -1     0     0   101   102  0.0000000000e+00  0.0000000000e+00  1.1338886049e+02  1.1338886049e+02  0.0000000000e+00 0. 9.
       21    -1     0     0   103   101  0.0000000000e+00  0.0000000000e+00 -7.5226738888e+02  7.5226738888e+02  0.0000000000e+00 0. 9.
        6     2     1     2   103     0  1.3210085085e+02 -1.9542879080e+02 -3.3894492647e+02  4.4604829794e+02  1.6861901980e+02  3.159480e-13 9.
       -6     2     1     2     0   102 -1.3210085085e+02  1.9542879080e+02 -2.9993360192e+02  4.1960795144e+02  1.7454976448e+02  1.756037e-13 9.
       24     2     3     0     0     0  1.0157618095e+02 -7.6208261691e+01 -1.0020800971e+02  1.7741537840e+02  7.2863925196e+01  1.087845e-13 9.
        5     1     3     0   103     0  3.0524669903e+01 -1.1922052911e+02 -2.3873691676e+02  2.6863291954e+02  4.8000000000e+00 0. 9.
      -24     2     4     0     0     0 -9.6865442859e+01  1.6644816532e+02 -3.0968962783e+02  3.7270773106e+02  7.6912167078e+01  1.754710e-14 9.
       -5     1     4     0     0   102 -3.5235407996e+01  2.8980625489e+01  9.7560259153e+00  4.6900220383e+01  4.8000000000e+00 0. 9.
       -3     1     5     0     0   104  1.2793239662e+01 -1.2959325909e+01  1.1326018582e+01  2.1450869586e+01  5.0000000000e-01 0. 9.
        4     1     5     0   104     0  8.8782941289e+01 -6.3248935782e+01 -1.1153402829e+02  1.5596450881e+02  1.5000000000e+00 0. 9.
        1     1     7     0   105     0 -5.3969774266e+01  2.7038684611e+01 -1.0913028286e+02  1.2471308887e+02  3.3000000000e-01 0. 9.
       -4     1     7     0     0   105 -4.2895668593e+01  1.3940948071e+02 -2.0055934498e+02  2.4799464218e+02  1.5000000000e+00 0. 9.
#pdf   21   21  1.744444e-02  1.157334e-01  2.899576e+02  5.157029e+00  6.373463e-01
</event>
<event>
    12  9999  1.000000e+00  2.208786e+02  7.896701e-03  1.044764e-01
       21    -1     0     0   101   102  0.0000000000e+00  0.0000000000e+00  2.8505350048e+02  2.8505350048e+02  0.0000000000e+00 0. 9.
       21    -1     0     0   102   103  0.0000000000e+00  0.0000000000e+00 -1.9074761950e+02  1.9074761950e+02  0.0000000000e+00 0. 9.
        6     2     1     2   101     0 -3.8612529434e+00  4.1069722383e+01  1.1254818750e+02  2.9816442102e+02  2.7300786817e+02  9.311715e-15 9.
       -6     2     1     2     0   103  3.8612529434e+00 -4.1069722383e+01 -1.8242306520e+01  1.7763669897e+02  1.7181496938e+02  2.513216e-13 9.
       24     2     3     0     0     0  3.6205347715e+01  4.5316398337e+01  1.8794527203e+02  2.1254241975e+02  8.0538510977e+01  2.088631e-13 9.
        5     1     3     0   101     0 -4.0066600659e+01 -4.2466759539e+00 -7.5397084537e+01  8.5622001272e+01  4.8000000000e+00 0. 9.
      -24     2     4     0     0     0  3.9255080939e+01  2.5172096598e+01 -3.6233117448e+01  1.0025833688e+02  8.1020364640e+01  9.135462e-14 9.
       -5     1     4     0     0   103 -3.5393827996e+01 -6.6241818981e+01  1.7990810927e+01  7.7378362092e+01  4.8000000000e+00 0. 9.
      -11     1     5     0     0     0 -3.5561691002e+00  5.3798483160e+01  1.3789228882e+02  1.4805811847e+02  5.1100000000e-04 0. 9.
       12     1     5     0     0     0  3.9761516816e+01 -8.4820848232e+00  5.0052983218e+01  6.4484301279e+01  0.0000000000e+00 0. 9.
        3     1     7     0   104     0  1.7816944127e+01 -1.9108219903e+01 -4.3259914120e+01  5.0539467108e+01  5.0000000000e-01 0. 9.
       -4     1     7     0     0   104  2.1438136813e+01  4.4280316501e+01  7.0267966727e+00  4.9718869767e+01  1.5000000000e+00 0. 9.
#pdf   21   21  4.385438e-02  2.934579e-02  1.766975e+02  2.201174e+00  3.273880e+00
</event>
<event>
    12  9999  1.000000e+00  1.728827e+02  7.874610e-03  1.076388e-01
       21    -1     0     0   101   102  0.0000000000e+00  0.0000000000e+00  1.3199408792e+03  1.3199408792e+03  0.0000000000e+00 0. 9.
       21    -1     0     0   103   101  0.0000000000e+00  0.0000000000e+00 -6.4544605690e+01  6.4544605690e+01  0.0000000000e+00 0. 9.
        6     2     1     2   103     0 -2.5369302265e+01 -6.6349975690e+00  6.9125634389e+01  1.8558956505e+02  1.7022781393e+02  1.248195e-13 9.
       -6     2     1     2     0   102  2.5369302265e+01  6.6349975690e+00  1.1862706392e+03  1.1988959199e+03  1.7153942022e+02  3.529878e-14 9.
       24     2     3     0     0     0  2.1733049013e+01  4.1001438478e+01  6.2456068375e+00  9.3585220583e+01  8.1029269590e+01  6.292876e-14 9.
        5     1     3     0   103     0 -4.7102351277e+01 -4.7636436047e+01  6.2880027551e+01  9.2004344462e+01  4.8000000000e+00 0. 9.
      -24     2     4     0     0     0  5.2414231807e+01 -3.9382852514e+01  9.8770272596e+02  9.9322305611e+02  8.1468420568e+01  1.871940e-13 9.
       -5     1     4     0     0   102 -2.7044929542e+01  4.6017850083e+01  1.9856791320e+02  2.0567286377e+02  4.8000000000e+00 0. 9.
       -3     1     5     0     0   104 -2.5895957922e+01 -5.7955101126e+00  3.1119321578e+00  2.6723074223e+01  5.0000000000e-01 0. 9.
        4     1     5     0   104     0  4.7629006934e+01  4.6796948590e+01  3.1336746797e+00  6.6862146360e+01  1.5000000000e+00 0. 9.
       11     1     7     0     0     0  2.0391948716e+01 -4.9459999872e+01  3.0220923592e+02  3.0690804068e+02  5.1100000000e-04 0. 9.
      -12     1     7     0     0     0  3.2022283091e+01  1.0077147358e+01  6.8549349004e+02  6.8631501543e+02  0.0000000000e+00 0. 9.
#pdf   21   21  2.030678e-01  9.929939e-03  1.722357e+02  2.658092e-01  8.144562e+00
</event>
<event>
    12  9999  1.000000e+00  2.336333e+02  7.901780e-03  1.037781e-01
       21    -1     0     0   101   102  0.0000000000e+00  0.0000000000e+00  3.2007845187e+02  3.2007845187e+02  0.0000000000e+00 0. 9.
       21    -1     0     0   102   103  0.0000000000e+00  0.0000000000e+00 -4.1571352217e+02  4.1571352217e+02  0.0000000000e+00 0. 9.
        6     2     1     2   101     0 -4.8842647319e+01 -1.5138663538e+02 -3.3034772098e+02  4.0459602820e+02  1.7106961072e+02  1.643540e-13 9.
       -6     2     1     2     0   103  4.8842647319e+01  1.5138663538e+02  2.3471265068e+02  3.3119594583e+02  1.7116427365e+02  1.168037e-13 9.
       24     2     3     0     0     0 -7.6830857133e+01 -1.5323953264e+02 -2.1907362748e+02  2.8974074099e+02  8.1062369586e+01  6.184225e-14 9.
        5     1     3     0   101     0  2.7988209814e+01  1.8528972532e+00 -1.1127409350e+02  1.1485528721e+02  4.8000000000e+00 0. 9.
      -24     2     4     0     0     0  8.6275715390e+01  9.7338274910e+01  1.0486972539e+02  1.8557766022e+02  8.0766142914e+01  7.421865e-14 9.
       -5     1     4     0     0   103 -3.7433068072e+01  5.4048360474e+01  1.2984292529e+02  1.4561828561e+02  4.8000000000e+00 0. 9.
       -1     1     5     0     0   104  1.3948646805e+01 -4.5269084700e+01 -6.9835363028e+01  8.4385671809e+01  3.3000000000e-01 0. 9.
        2     1     5     0   104     0 -9.0779503938e+01 -1.0797044794e+02 -1.4923826445e+02  2.0535506918e+02  3.3000000000e-01 0. 9.
       15     1     7     0     0     0  6.9427337959e+00 -1.1071569440e+01 -2.7214507318e+00  1.3466424389e+01  1.7768200000e+00  1.239170e-01 9.
      -16     1     7     0     0     0  7.9332981595e+01  1.0840984435e+02  1.0759117612e+02  1.7211123583e+02  0.0000000000e+00 0. 9.
#pdf   21   21  4.924284e-02  6.395593e-02  2.335987e+02  1.913358e+00  1.422378e+00
</event>
<event>
    12  9999  1.000000e+00  1.761333e+02  7.876285e-03  1.073916e-01
        2    -1     0     0   101     0  0.0000000000e+00  0.0000000000e+00  5.2511110789e+02  5.2511110789e+02  0.0000000000e+00 0. 9.
       -2    -1     0     0     0   102  0.0000000000e+00  0.0000000000e+00 -6.1134715245e+01  6.1134715245e+01  0.0000000000e+00 0. 9.
        6     2     1     2   101     0  9.5905690224e+00  4.1791037137e+01  1.7893858980e+02  2.5146629077e+02  1.7139955273e+02  7.751707e-14 9.
       -6     2     1     2     0   102 -9.5905690224e+00 -4.1791037137e+01  2.8503780285e+02  3.3477953236e+02  1.7027130245e+02  1.487937e-13 9.
       24     2     3     0     0     0  2.7692536172e+01 -2.2612408203e+01  4.3364291472e+01  1.0020851294e+02  8.2964370227e+01  1.511116e-13 9.
        5     1     3     0   101     0 -1.8101967149e+01  6.4403445340e+01  1.3557429833e+02  1.5125777783e+02  4.8000000000e+00 0. 9.
      -24     2     4     0     0     0  4.0197411209e+01  1.3327894893e+01  1.7736788973e+02  2.0388724904e+02  9.1198560095e+01  2.591002e-13 9.
       -5     1     4     0     0   102 -4.9787980231e+01 -5.5118932030e+01  1.0766991311e+02  1.3089228332e+02  4.8000000000e+00 0. 9.
       -1     1     5     0     0   103  3.3536156294e+01 -1.7362841702e+01  6.6113145790e+01  7.6139339353e+01  3.3000000000e-01 0. 9.
        2     1     5     0   103     0 -5.8436201216e+00 -5.2495665010e+00 -2.2748854318e+01  2.4069173591e+01  3.3000000000e-01 0. 9.
       13     1     7     0     0     0 -1.5727707832e+01 -1.2407283156e+01  1.1321734619e+02  1.1497599797e+02  1.0566000000e-01  6.806526e+05 9.
      -14     1     7     0     0     0  5.5925119041e+01  2.5735178048e+01  6.4150543549e+01  8.8911251069e+01  0.0000000000e+00 0. 9.
#pdf    2   -2  8.078632e-02  9.405341e-03  1.755870e+02  5.971849e-01  5.368795e-01
</event>
<event>
    12  9999  1.000000e+00  1.860146e+02  7.881198e-03  1.066737e-01
       21    -1     0     0   101   102  0.0000000000e+00  0.0000000000e+00  2.0471746385e+02  2.0471746385e+02  0.0000000000e+00 0. 9.
       21    -1     0     0   102   103  0.0000000000e+00  0.0000000000e+00 -2.3229383010e+02  2.3229383010e+02  0.0000000000e+00 0. 9.
        6     2     1     2   101     0  4.5216836619e+01 -5.3584273906e+01  1.0032267428e+02  2.0995147937e+02  1.7058472379e+02  9.698683e-15 9.
       -6     2     1     2     0   103 -4.5216836619e+01  5.3584273906e+01 -1.2789904054e+02  2.2705981457e+02  1.7401769479e+02  1.819973e-14 9.
       24     2     3     0     0     0  2.4553222895e+01 -8.3956797685e+01  1.7205666315e+01  1.1895174231e+02  7.8751999417e+01  9.558884e-14 9.
        5     1     3     0   101     0  2.0663613724e+01  3.0372523778e+01  8.3117007969e+01  9.0999737068e+01  4.8000000000e+00 0. 9.
      -24     2     4     0     0     0 -5.9264337184e+01  3.9497969483e+01 -1.5789465799e+02  1.9074820058e+02  7.9886179969e+01  2.243441e-14 9.
       -5     1     4     0     0   103  1.4047500565e+01  1.4086304423e+01  2.9995617449e+01  3.6311613990e+01  4.8000000000e+00 0. 9.
      -15     1     5     0     0     0 -8.8200749045e+00 -3.3772221952e+01  4.1248832189e+01  5.4064590475e+01  1.7768200000e+00  2.996027e-01 9.
       16     1     5     0     0     0  3.3373297800e+01 -5.0184575733e+01 -2.4043165874e+01  6.4887151831e+01  0.0000000000e+00 0. 9.
       13     1     7     0     0     0 -5.2960883228e+01  4.6363470812e+00 -3.7004949285e+01  6.4774441736e+01  1.0566000000e-01  2.409330e+05 9.
      -14     1     7     0     0     0 -6.3034539562e+00  3.4861622402e+01 -1.2088970870e+02  1.2597375885e+02  0.0000000000e+00 0. 9.
#pdf   21   21  3.149499e-02  3.573751e-02  1.844315e+02  3.057011e+00  2.703433e+00
</event>
<event>
    12  9999  1.000000e+00  1.848850e+02  7.880650e-03  1.067533e-01
       21    -1     0     0   101   102  0.0000000000e+00  0.0000000000e+00  1.1345272916e+02  1.1345272916e+02  0.0000000000e+00 0. 9.
       21    -1     0     0   103   101  0.0000000000e+00  0.0000000000e+00 -3.0544378175e+02  3.0544378175e+02  0.0000000000e+00 0. 9.
        6     2     1     2   103     0 -6.7654625009e+01  2.5247497360e+00 -1.1967133887e+02  2.1910484598e+02  1.7059361517e+02  2.864468e-14 9.
       -6     2     1     2     0   102  6.7654625009e+01 -2.5247497360e+00 -7.2319713717e+01  1.9979166493e+02  1.7350229318e+02  7.972126e-14 9.
       24     2     3     0     0     0  1.3085146574e+00  3.1193938028e+01 -1.1559622852e+02  1.4415497263e+02  8.0270754982e+01  1.782576e-13 9.
        5     1     3     0   103     0 -6.8963139666e+01 -2.8669188292e+01 -4.0751103489e+00  7.4949873344e+01  4.8000000000e+00 0. 9.
      -24     2     4     0     0     0 -1.9452781575e+01  3.3066828259e+01 -1.8030538083e+01  9.1049698345e+01  8.0579907067e+01  2.592060e-13 9.
       -5     1     4     0     0   102  8.7107406584e+01 -3.5591577995e+01 -5.4289175634e+01  1.0874196659e+02  4.8000000000e+00 0. 9.
       -3     1     5     0     0   104  2.1957077082e+01  2.4246596935e+00  1.1706126546e+00  2.2127190120e+01  5.0000000000e-01 0. 9.
        4     1     5     0   104     0 -2.0648562425e+01  2.8769278334e+01 -1.1676684118e+02  1.2202778251e+02  1.5000000000e+00 0. 9.
        3     1     7     0   105     0  5.4170383642e+00  2.4570430745e+01 -4.6128912054e+01  5.2546901896e+01  5.0000000000e-01 0. 9.
       -4     1     7     0     0   105 -2.4869819940e+01  8.4963975141e+00  2.8098373971e+01  3.8502796449e+01  1.5000000000e+00 0. 9.
#pdf   21   21  1.745427e-02  4.699135e-02  1.835367e+02  5.189820e+00  2.042531e+00
</event>
<event>
    12  9999  1.000000e+00  2.620145e+02  7.912173e-03  1.023810e-01
       21    -1     0     0   101   102  0.0000000000e+00  0.0000000000e+00  3.7010337896e+02  3.7010337896e+02  0.0000000000e+00 0. 9.
       21    -1     0     0   103   101  0.0000000000e+00  0.0000000000e+00 -7.4364039716e+02  7.4364039716e+02  0.0000000000e+00 0. 9.
        6     2     1     2   103     0  1.7334411416e+02  9.6430924537e+01 -6.6916792090e+02  7.1854160638e+02  1.7079001322e+02  1.062733e-13 9.
       -6     2     1     2     0   102 -1.7334411416e+02 -9.6430924537e+01  2.9563090270e+02  3.9520216975e+02  1.7158094072e+02  3.779329e-14 9.
       24     2     3     0     0     0  1.3284776533e+02  1.1663909604e+01 -3.0890874571e+02  3.4620424001e+02  8.1536415681e+01  7.942719e-14 9.
        5     1     3     0   103     0  4.0496348829e+01  8.4767014933e+01 -3.6025917519e+02  3.7233736637e+02  4.8000000000e+00 0. 9.
      -24     2     4     0     0     0 -1.9064511897e+02 -6.6055985093e+01  2.0744433757e+02  3.0021863442e+02  7.9931975515e+01  2.819195e-14 9.
       -5     1     4     0     0   102  1.7301004808e+01 -3.0374939445e+01  8.8186565131e+01  9.4983535327e+01  4.8000000000e+00 0. 9.
      -15     1     5     0     0     0  1.9738049611e+01 -1.5067810783e+01 -1.3338398711e+02  1.3568741515e+02  1.7768200000e+00  7.379092e-02 9.
       16     1     5     0     0     0  1.1310971572e+02  2.6731720386e+01 -1.7552475860e+02  2.1051682486e+02  0.0000000000e+00 0. 9.
        1     1     7     0   104     0 -4.1462487792e+01 -3.5544232473e+00  9.3570034575e+01  1.0240718768e+02  3.3000000000e-01 0. 9.
       -2     1     7     0     0   104 -1.4918263118e+02 -6.2501561845e+01  1.1387430300e+02  1.9781144674e+02  3.3000000000e-01 0. 9.
#pdf   21   21  5.693898e-02  1.144062e-01  2.617562e+02  1.614540e+00  6.558918e-01
</event>
<event>
    12  9999  1.000000e+00  2.153071e+02  7.894391e-03  1.047973e-01
       21    -1     0     0   101   102  0.0000000000e+00  0.0000000000e+00  9.9681333547e+01  9.9681333547e+01  0.0000000000e+00 0. 9.
       21    -1     0     0   103   101  0.0000000000e+00  0.0000000000e+00 -4.7733919492e+02  4.7733919492e+02  0.0000000000e+00 0. 9.
        6     2     1     2   103     0 -1.1706568863e+02  5.6617846248e+01 -1.4265686422e+02  2.5838975572e+02  1.7176824207e+02  3.144674e-13 9.
       -6     2     1     2     0   102  1.1706568863e+02 -5.6617846248e+01 -2.3500099715e+02  3.1863077275e+02  1.7143554097e+02  7.024412e-14 9.
       24     2     3     0     0     0 -8.4316480047e+01 -1.5943378589e+01 -1.3335308770e+02  1.7809503441e+02  8.1063772146e+01  5.832638e-14 9.
        5     1     3     0   103     0 -3.2749208585e+01  7.2561224837e+01 -9.3037765178e+00  8.0294721311e+01  4.8000000000e+00 0. 9.
      -24     2     4     0     0     0  4.8091996055e+01 -2.6889949202e+01 -2.2200227781e+02  2.4225587612e+02  7.9793412677e+01  1.764412e-13 9.
       -5     1     4     0     0   102  6.8973692577e+01 -2.9727897046e+01 -1.2998719342e+01  7.6374896629e+01  4.8000000000e+00 0. 9.
      -11     1     5     0     0     0 -3.9116440017e+01  3.3155412378e+01 -6.0001691546e+01  7.8927689933e+01  5.1100000000e-04 0. 9.
       12     1     5     0     0     0 -4.5200040030e+01 -4.9098790967e+01 -7.3351396157e+01  9.9167344481e+01  0.0000000000e+00 0. 9.
        3     1     7     0   104     0 -2.2137167097e+01 -7.5437936627e+00 -6.7424037422e+01  7.1366755651e+01  5.0000000000e-01 0. 9.
       -4     1     7     0     0   104  7.0229163153e+01 -1.9346155540e+01 -1.5457824039e+02  1.7088912047e+02  1.5000000000e+00 0. 9.
#pdf   21   21  1.533559e-02  7.343680e-02  2.151746e+02  5.773092e+00  1.212228e+00
</event>
<event>
    12  9999  1.000000e+00  2.475612e+02  7.907026e-03  1.030677e-01
       21    -1     0     0   101   102  0.0000000000e+00  0.0000000000e+00  1.4030438493e+02  1.4030438493e+02  0.0000000000e+00 0. 9.
       21    -1     0     0   102   103  0.0000000000e+00  0.0000000000e+00 -4.7561652787e+02  4.7561652787e+02  0.0000000000e+00 0. 9.
        6     2     1     2   101     0  1.7757067903e+02  2.6045032550e+01 -8.0181199679e+01  2.6096540687e+02  1.7165147546e+02  3.177191e-13 9.
       -6     2     1     2     0   103 -1.7757067903e+02 -2.6045032550e+01 -2.5513094326e+02  3.5495550594e+02  1.6938690390e+02  3.194298e-13 9.
       24     2     3     0     0     0  2.7965615238e+01 -2.3786848959e+01 -1.0918129386e+01  8.8671168910e+01  7.9971750184e+01  1.022065e-13 9.
        5     1     3     0   101     0  1.4960506379e+02  4.9831881509e+01 -6.9263070293e+01  1.7229423796e+02  4.8000000000e+00 0. 9.
      -24     2     4     0     0     0 -3.9683252898e+01  3.5430377434e+01 -8.7029775267e+01  1.2896167637e+02  7.8910455482e+01  1.529149e-13 9.
       -5     1     4     0     0   103 -1.3788742613e+02 -6.1475409984e+01 -1.6810116800e+02  2.2599382956e+02  4.8000000000e+00 0. 9.
      -11     1     5     0     0     0  3.0866480707e+01 -1.7269303285e+00 -4.0941273026e+01  5.1302141835e+01  5.1100000000e-04 0. 9.
       12     1     5     0     0     0 -2.9008654687e+00 -2.2059918631e+01  3.0023143640e+01  3.7369027075e+01  0.0000000000e+00 0. 9.
        1     1     7     0   104     0 -5.6495556921e+01  4.1214027296e+01 -8.6417835952e+01  1.1116876930e+02  3.3000000000e-01 0. 9.
       -2     1     7     0     0   104  1.6812304023e+01 -5.7836498616e+00 -6.1193931497e-01  1.7792907071e+01  3.3000000000e-01 0. 9.
#pdf   21   21  2.158529e-02  7.317177e-02  2.467825e+02  4.292933e+00  1.203393e+00
</event>
<event>
    12  9999  1.000000e+00  2.689727e+02  7.914553e-03  1.020669e-01
       21    -1     0     0   101   102  0.0000000000e+00  0.0000000000e+00  4.5202483654e+02  4.5202483654e+02  0.0000000000e+00 0. 9.
       21    -1     0     0   103   101  0.0000000000e+00  0.0000000000e+00 -1.7771110465e+02  1.7771110465e+02  0.0000000000e+00 0. 9.
        6     2     1     2   103     0  7.5399313290e+01  1.9319069972e+02  3.7774076229e+01  2.7135317893e+02  1.7087411735e+02  2.228571e-13 9.
       -6     2     1     2     0   102 -7.5399313290e+01 -1.9319069972e+02  2.3653965566e+02  3.5838276226e+02  1.7169593088e+02  2.283533e-13 9.
       24     2     3     0     0     0  1.1710716239e+02  1.6714286502e+02  3.8923924270e+01  2.2193257068e+02  7.8026721310e+01  9.381560e-14 9.
        5     1     3     0   103     0 -4.1707849103e+01  2.6047834701e+01 -1.1498480412e+00  4.9420608252e+01  4.8000000000e+00 0. 9.
      -24     2     4     0     0     0 -1.0723499008e+02 -1.6200422605e+02  2.3292735649e+02  3.1341393792e+02  7.8920407571e+01  2.745853e-13 9.
       -5     1     4     0     0   102  3.1835676790e+01 -3.1186473672e+01  3.6122991776e+00  4.4968824336e+01  4.8000000000e+00 0. 9.
       -1     1     5     0     0   104  1.2070003803e+01  8.2442128561e+01  1.9805953101e+01  8.5643296478e+01  3.3000000000e-01 0. 9.
        4     1     5     0   104     0  1.0503715859e+02  8.4700736456e+01  1.9117971169e+01  1.3628927420e+02  1.5000000000e+00 0. 9.
        1     1     7     0   105     0 -2.8239974448e+01 -4.0211711832e+00  1.3031681625e+01  3.1362391499e+01  3.3000000000e-01 0. 9.
       -2     1     7     0     0   105 -7.8995015632e+01 -1.5798305486e+02  2.1989567486e+02  2.8205154643e+02  3.3000000000e-01 0. 9.
#pdf   21   21  6.954228e-02  2.734017e-02  2.687111e+02  1.272001e+00  3.447576e+00
</event>
<event>
    12  9999  1.000000e+00  1.750174e+02  7.875713e-03  1.074758e-01
       21    -1     0     0   101   102  0.0000000000e+00  0.0000000000e+00  3.5664981500e+01  3.5664981500e+01  0.0000000000e+00 0. 9.
       21    -1     0     0   103   101  0.0000000000e+00  0.0000000000e+00 -9.0568171972e+02  9.0568171972e+02  0.0000000000e+00 0. 9.
        6     2     1     2   103     0  3.4525601535e+01 -2.1809752631e+01 -3.2631788084e+02  3.6995290573e+02  1.6945238455e+02  2.083870e-13 9.
       -6     2     1     2     0   102 -3.4525601535e+01  2.1809752631e+01 -5.4369885739e+02  5.7139379550e+02  1.7092319777e+02  2.149511e-13 9.
       24     2     3     0     0     0  1.0794125508e+01  2.0485921047e+01 -3.0614498931e+02  3.1720736071e+02  7.9746906539e+01  1.928919e-14 9.
        5     1     3     0   103     0  2.3731476027e+01 -4.2295673678e+01 -2.0172891523e+01  5.2745545013e+01  4.8000000000e+00 0. 9.
      -24     2     4     0     0     0 -3.8077785582e+00  7.1617934992e+01 -2.5790388304e+02  2.7962976920e+02  8.0837906616e+01  3.297935e-14 9.
       -5     1     4     0     0   102 -3.0717822977e+01 -4.9808182361e+01 -2.8579497435e+02  2.9176402630e+02  4.8000000000e+00 0. 9.
      -15     1     5     0     0     0 -4.1837363808e-01  4.1082671034e+01 -8.0969109650e+01  9.0813626195e+01  1.7768200000e+00  8.137187e-02 9.
       16     1     5     0     0     0  1.1212499147e+01 -2.0596749987e+01 -2.2517587966e+02  2.2639373452e+02  0.0000000000e+00 0. 9.
       13     1     7     0     0     0  3.8292946155e+01  3.2699870972e+01 -1.0898980261e+02  1.2006006632e+02  1.0566000000e-01  1.696230e+06 9.
      -14     1     7     0     0     0 -4.2100724713e+01  3.8918064021e+01 -1.4891408043e+02  1.5956970288e+02  0.0000000000e+00 0. 9.
#pdf   21   21  5.486920e-03  1.393356e-01  1.743037e+02  1.255455e+01  5.114221e-01
</event>
<event>
    12  9999  1.000000e+00  1.861360e+02  7.881257e-03  1.066652e-01
       21    -1     0     0   101   102  0.0000000000e+00  0.0000000000e+00  4.9916809544e+01  4.9916809544e+01  0.0000000000e+00 0. 9.
       21    -1     0     0   103   101  0.0000000000e+00  0.0000000000e+00 -7.0648881302e+02  7.0648881302e+02  0.0000000000e+00 0. 9.
        6     2     1     2   103     0 -7.1878340828e+01 -1.3097463453e+01 -3.7848778845e+02  4.2180533861e+02  1.7125623564e+02  3.884587e-13 9.
       -6     2     1     2     0   102  7.1878340828e+01  1.3097463453e+01 -2.7808421503e+02  3.3460028396e+02  1.7113877394e+02  5.370517e-14 9.
       24     2     3     0     0     0 -8.0347244265e+01 -6.3229538556e+01 -2.1754533562e+02  2.5295493026e+02  7.8781783957e+01  1.606127e-13 9.
        5     1     3     0   103     0  8.4689034369e+00  5.0132075102e+01 -1.6094245282e+02  1.6885040835e+02  4.8000000000e+00 0. 9.
      -24     2     4     0     0     0  1.0327652698e+02 -1.8005572074e+01 -2.5032034055e+02  2.8218733098e+02  7.7325126738e+01  2.897671e-14 9.
       -5     1     4     0     0   102 -3.1398186156e+01  3.1103035527e+01 -2.7763874486e+01  5.2412952973e+01  4.8000000000e+00 0. 9.
       -1     1     5     0     0   104 -8.7472136015e+01 -5.2883746177e+01 -1.3440495349e+02  1.6885753051e+02  3.3000000000e-01 0. 9.
        4     1     5     0   104     0  7.1248917503e+00 -1.0345792379e+01 -8.3140382131e+01  8.4097399742e+01  1.5000000000e+00 0. 9.
        3     1     7     0   105     0 -2.2334146956e-01  1.9957017688e+01 -3.5637952791e+01  4.0849065051e+01  5.0000000000e-01 0. 9.
       -4     1     7     0     0   105  1.0349986845e+02 -3.7962589761e+01 -2.1468238776e+02  2.4133826593e+02  1.5000000000e+00 0. 9.
#pdf   21   21  7.679509e-03  1.086906e-01  1.860820e+02  9.886600e+00  7.339262e-01
</event>
<event>
    12  9999  1.000000e+00  1.977911e+02  7.886731e-03  1.058778e-01
       21    -1     0     0   101   102  0.0000000000e+00  0.0000000000e+00  5.0244264331e+02  5.0244264331e+02  0.0000000000e+00 0. 9.
       21    -1     0     0   102   103  0.0000000000e+00  0.0000000000e+00 -8.0867797074e+01  8.0867797074e+01  0.0000000000e+00 0. 9.
        6     2     1     2   101     0  1.0315202027e+02 -2.3187366881e+01  2.6954189923e+02  3.3587492568e+02  1.7023847096e+02  3.219867e-14 9.
       -6     2     1     2     0   103 -1.0315202027e+02  2.3187366881e+01  1.5203294701e+02  2.4743551470e+02  1.6411070559e+02  1.378960e-14 9.
       24     2     3     0     0     0  1.2479647917e+01  3.9428209611e+01  1.1203497968e+02  1.4358956682e+02  7.9723282061e+01  2.193424e-13 9.
        5     1     3     0   101     0  9.0672372357e+01 -6.2615576491e+01  1.5750691955e+02  1.9228535887e+02  4.8000000000e+00 0. 9.
      -24     2     4     0     0     0 -1.0545483297e+02 -3.2123179127e+01  8.8001560376e+01  1.6265569446e+02  8.0993702695e+01  2.515527e-14 9.
       -5     1     4     0     0   103  2.3028126989e+00  5.5310546008e+01  6.4031386632e+01  8.4779820240e+01  4.8000000000e+00 0. 9.
       -3     1     5     0     0   104  2.1052015008e+01  4.6920703965e+01  2.7580928175e+01  5.8358353262e+01  5.0000000000e-01 0. 9.
        4     1     5     0   104     0 -8.5723670914e+00 -7.4924943544e+00  8.4454051500e+01  8.5231213555e+01  1.5000000000e+00 0. 9.
        3     1     7     0   105     0 -2.3152597744e+01  1.8417151361e+01 -3.2615692693e+00  2.9767802751e+01  5.0000000000e-01 0. 9.
       -4     1     7     0     0   105 -8.2302235228e+01 -5.0540330488e+01  9.1263129645e+01  1.3288789171e+02  1.5000000000e+00 0. 9.
#pdf   21   21  7.729887e-02  1.244120e-02  1.952186e+02  1.147372e+00  6.843948e+00
</event>
<event>
    12  9999  1.000000e+00  1.877815e+02  7.882050e-03  1.065503e-01
       21    -1     0     0   101   102  0.0000000000e+00  0.0000000000e+00  1.0948208392e+03  1.0948208392e+03  0.0000000000e+00 0. 9.
       21    -1     0     0   102   103  0.0000000000e+00  0.0000000000e+00 -3.4107906684e+01  3.4107906684e+01  0.0000000000e+00 0. 9.
        6     2     1     2   101     0  5.0591015636e+01  5.1282866159e+01  4.0223147012e+02  4.4470272122e+02  1.7544506684e+02  2.863888e-13 9.
       -6     2     1     2     0   103 -5.0591015636e+01 -5.1282866159e+01  6.5848146240e+02  6.8422602467e+02  1.7140021379e+02  2.139753e-13 9.
       24     2     3     0     0     0  4.3013088337e+01 -1.5823649487e+01  3.4113034259e+02  3.5350460057e+02  8.0592048848e+01  5.591648e-14 9.
        5     1     3     0   101     0  7.5779272988e+00  6.7106515646e+01  6.1101127532e+01  9.1198120649e+01  4.8000000000e+00 0. 9.
      -24     2     4     0     0     0  8.7512160445e+00 -1.0091662387e+00  1.5105352571e+02  1.7084985041e+02  7.9340415659e+01  4.189291e-13 9.
       -5     1     4     0     0   103 -5.9342231681e+01 -5.0273699921e+01  5.0742793669e+02  5.1337617426e+02  4.8000000000e+00 0. 9.
       -1     1     5     0     0   104  4.7347294600e+01  1.9053145336e+01  1.3355834554e+02  1.4297807250e+02  3.3000000000e-01 0. 9.
        2     1     5     0   104     0 -4.3342062628e+00 -3.4876794822e+01  2.0757199705e+02  2.1052652807e+02  3.3000000000e-01 0. 9.
        3     1     7     0   105     0  8.4459826623e-01  2.0642495104e+01  2.8551373057e+00  2.0862113014e+01  5.0000000000e-01 0. 9.
       -4     1     7     0     0   105  7.9066177782e+00 -2.1651661343e+01  1.4819838841e+02  1.4998773740e+02  1.5000000000e+00 0. 9.
#pdf   21   21  1.684340e-01  5.247370e-03  1.859231e+02  3.706949e-01  1.298645e+01
</event>
<event>
    12  9999  1.000000e+00  2.077274e+02  7.891154e-03  1.052510e-01
       21    -1     0     0   101   102  0.0000000000e+00  0.0000000000e+00  2.6505544980e+02  2.6505544980e+02  0.0000000000e+00 0. 9.
       21    -1     0     0   102   103  0.0000000000e+00  0.0000000000e+00 -3.3947407414e+02  3.3947407414e+02  0.0000000000e+00 0. 9.
        6     2     1     2   101     0 -7.4749313165e+01 -9.1993177606e+01 -2.5523420080e+02  3.2884186999e+02  1.7012428884e+02  1.773409e-13 9.
       -6     2     1     2     0   103  7.4749313165e+01  9.1993177606e+01  1.8081557646e+02  2.7568765396e+02  1.7105322361e+02  2.456562e-13 9.
       24     2     3     0     0     0 -9.8262436506e+01 -1.7656901359e+01 -1.7724795430e+02  2.1846232668e+02  7.9634655049e+01  2.038296e-15 9.
        5     1     3     0   101     0  2.3513123341e+01 -7.4336276246e+01 -7.7986246506e+01  1.1037954330e+02  4.8000000000e+00 0. 9.
      -24     2     4     0     0     0  1.5941278381e+01  1.3424278620e+01  1.6571997368e+01  8.4296823150e+01  7.9981170807e+01  5.989357e-14 9.
       -5     1     4     0     0   103  5.8808034784e+01  7.8568898986e+01  1.6424357909e+02  1.9139083080e+02  4.8000000000e+00 0. 9.
       -1     1     5     0     0   104  1.0670692978e+01  1.0431943771e+01 -1.6371780775e+01  2.2154756717e+01  3.3000000000e-01 0. 9.
        2     1     5     0   104     0 -1.0893312948e+02 -2.8088845130e+01 -1.6087617352e+02  1.9630756997e+02  3.3000000000e-01 0. 9.
        3     1     7     0   105     0  1.6178808388e+01 -9.5445971322e+00 -2.8238746285e+01  3.3919462953e+01  5.0000000000e-01 0. 9.
       -4     1     7     0     0   105 -2.3753000647e-01  2.2968875752e+01  4.4810743652e+01  5.0377360198e+01  1.5000000000e+00 0. 9.
#pdf   21   21  4.077776e-02  5.222678e-02  2.073463e+02  2.353285e+00  1.807972e+00
</event>
<event>
    12  9999  1.000000e+00  1.883172e+02  7.882306e-03  1.065132e-01
       21    -1     0     0   101   102  0.0000000000e+00  0.0000000000e+00  4.7755243980e+01  4.7755243980e+01  0.0000000000e+00 0. 9.
       21    -1     0     0   102   103  0.0000000000e+00  0.0000000000e+00 -8.3340523251e+02  8.3340523251e+02  0.0000000000e+00 0. 9.
        6     2     1     2   101     0 -6.8743321364e+01 -3.3942422779e+01 -2.4780179714e+02  3.1136836247e+02  1.7224051262e+02  3.093076e-14 9.
       -6     2     1     2     0   103  6.8743321364e+01  3.3942422779e+01 -5.3784819140e+02  5.6979211402e+02  1.7176915880e+02  3.274288e-13 9.
       24     2     3     0     0     0 -6.9157086796e-01 -3.4904814959e+01 -4.6488826488e+01  9.8807973182e+01  7.9893555425e+01  7.682977e-14 9.
        5     1     3     0   101     0 -6.8051750496e+01  9.6239217961e-01 -2.0131297065e+02  2.1256038929e+02  4.8000000000e+00 0. 9.
      -24     2     4     0     0     0  7.0176609977e+01  4.5385181569e+01 -5.4386151997e+02  5.5592881118e+02  7.9290093381e+01  9.265395e-14 9.
       -5     1     4     0     0   103 -1.4332886132e+00 -1.1442758790e+01  6.0133285723e+00  1.3863302835e+01  4.8000000000e+00 0. 9.
      -15     1     5     0     0     0  1.2542969138e+01  1.9818739114e+01  3.1720512966e+00  2.3734521137e+01  1.7768200000e+00  4.344877e-02 9.
       16     1     5     0     0     0 -1.3234540006e+01 -5.4723554073e+01 -4.9660877785e+01  7.5073452045e+01  0.0000000000e+00 0. 9.
        1     1     7     0   104     0  3.4370944161e+01 -2.0571069404e+01 -2.0014494105e+02  2.0411427443e+02  3.3000000000e-01 0. 9.
       -2     1     7     0     0   104  3.5805665816e+01  6.5956250973e+01 -3.4371657892e+02  3.5181453675e+02  3.3000000000e-01 0. 9.
#pdf   21   21  7.346961e-03  1.282162e-01  1.881020e+02  1.021552e+01  5.757641e-01
</event>
<event>
    12  9999  1.000000e+00  1.717120e+02  7.873999e-03  1.077293e-01
       21    -1     0     0   101   102  0.0000000000e+00  0.0000000000e+00  4.1733917688e+02  4.1733917688e+02  0.0000000000e+00 0. 9.
       21    -1     0     0   102   103  0.0000000000e+00  0.0000000000e+00 -8.4374382915e+01  8.4374382915e+01  0.0000000000e+00 0. 9.
        6     2     1     2   101     0 -2.0504611912e+01 -3.9151742886e+01  2.6391529663e+02  3.1252963381e+02  1.6146265864e+02  1.322290e-13 9.
       -6     2     1     2     0   103  2.0504611912e+01  3.9151742886e+01  6.9049497331e+01  1.8918392598e+02  1.7049758557e+02  6.033741e-13 9.
       24     2     3     0     0     0 -4.6854192078e+01  2.4406687365e+01  1.6958078158e+02  1.9567067968e+02  8.2087585552e+01  1.387644e-14 9.
        5     1     3     0   101     0  2.6349580165e+01 -6.3558430252e+01  9.4334515048e+01  1.1685895413e+02  4.8000000000e+00 0. 9.
      -24     2     4     0     0     0  3.3509638462e+01  4.8065599469e+01  1.0776259296e+02  1.4710862054e+02  8.1209433408e+01  4.151808e-14 9.
       -5     1     4     0     0   103 -1.3005026550e+01 -8.9138565832e+00 -3.8713095626e+01  4.2075305438e+01  4.8000000000e+00 0. 9.
      -11     1     5     0     0     0 -1.9535600006e+01  3.2164706822e+01  1.8481508961e+01  4.1925817897e+01  5.1100000000e-04 0. 9.
       12     1     5     0     0     0 -2.7318592072e+01 -7.7580194571e+00  1.5109927262e+02  1.5374486179e+02  0.0000000000e+00 0. 9.
       15     1     7     0     0     0  3.1776023231e+01  6.9494416401e+01  6.9949699243e+01  1.0361132697e+02  1.7768200000e+00  2.093307e-01 9.
      -16     1     7     0     0     0  1.7336152311e+00 -2.1428816932e+01  3.7812893714e+01  4.3497293570e+01  0.0000000000e+00 0. 9.
#pdf   21   21  6.420603e-02  1.298067e-02  1.674022e+02  1.452243e+00  6.611764e+00
</event>
<event>
    12  9999  1.000000e+00  1.953525e+02  7.885612e-03  1.060377e-01
       21    -1     0     0   101   102  0.0000000000e+00  0.0000000000e+00  1.1017756667e+03  1.1017756667e+03  0.0000000000e+00 0. 9.
       21    -1     0     0   103   101  0.0000000000e+00  0.0000000000e+00 -4.6432495688e+01  4.6432495688e+01  0.0000000000e+00 0. 9.
        6     2     1     2   103     0 -3.7115939359e+01  7.3550608869e+01  2.4781622611e+02  3.1843794783e+02  1.8221569547e+02  1.566065e-13 9.
       -6     2     1     2     0   102  3.7115939359e+01 -7.3550608869e+01  8.0752694492e+02  8.2977021458e+02  1.7213819219e+02  1.015769e-13 9.
       24     2     3     0     0     0  1.5847195478e+01  3.7603844652e+01  2.3180424049e+02  2.5228141230e+02  9.0815870566e+01  3.534170e-14 9.
        5     1     3     0   103     0 -5.2963134837e+01  3.5946764217e+01  1.6011985619e+01  6.6156535527e+01  4.8000000000e+00 0. 9.
      -24     2     4     0     0     0  2.3627977610e+00 -9.3780142441e+01  3.6590489124e+02  3.8629519479e+02  8.0853510465e+01  1.037064e-14 9.
       -5     1     4     0     0   102  3.4753141598e+01  2.0229533572e+01  4.4162205369e+02  4.4347501979e+02  4.8000000000e+00 0. 9.
       -3     1     5     0     0   104  2.4638186896e+00 -1.7199999208e+01  1.6006073024e+02  1.6100185633e+02  5.0000000000e-01 0. 9.
        4     1     5     0   104     0  1.3383376789e+01  5.4803843860e+01  7.1743510247e+01  9.1279555973e+01  1.5000000000e+00 0. 9.
        1     1     7     0   105     0  5.1802982600e+00 -9.7099525905e+01  3.6856898963e+02  3.8118022305e+02  3.3000000000e-01 0. 9.
       -2     1     7     0     0   105 -2.8175004990e+00  3.3193834638e+00 -2.6640983972e+00  5.1149717410e+00  3.3000000000e-01 0. 9.
#pdf   21   21  1.695039e-01  7.143461e-03  1.908372e+02  3.651744e-01  1.043111e+01
</event>
<event>
    12  9999  1.000000e+00  2.711294e+02  7.915278e-03  1.019716e-01
       21    -1     0     0   101   102  0.0000000000e+00  0.0000000000e+00  4.5569455771e+02  4.5569455771e+02  0.0000000000e+00 0. 9.
       21    -1     0     0   102   103  0.0000000000e+00  0.0000000000e+00 -1.8226917711e+02  1.8226917711e+02  0.0000000000e+00 0. 9.
        6     2     1     2   101     0  2.0240035601e+02 -7.0982488721e+01  2.4596925078e+02  3.6799546477e+02  1.7004520558e+02  1.841915e-13 9.
       -6     2     1     2     0   103 -2.0240035601e+02  7.0982488721e+01  2.7456129818e+01  2.6996827004e+02  1.6163109215e+02  4.990687e-14 9.
       24     2     3     0     0     0  1.0395939474e+02 -6.6961438099e+01  6.3428069310e+01  1.6050783950e+02  8.0301037472e+01  7.997131e-14 9.
        5     1     3     0   101     0  9.8440961269e+01 -4.0210506215e+00  1.8254118147e+02  2.0748762526e+02  4.8000000000e+00 0. 9.
      -24     2     4     0     0     0 -1.2857814297e+02  1.0051177569e+02  7.0290061344e+00  1.8773685689e+02  9.2524400063e+01  9.282584e-14 9.
       -5     1     4     0     0   103 -7.3822213040e+01 -2.9529286970e+01  2.0427123683e+01  8.2231413152e+01  4.8000000000e+00 0. 9.
      -15     1     5     0     0     0  3.9997616720e+01  1.4828064697e+01  1.0504400400e+01  4.3967946996e+01  1.7768200000e+00  5.454505e-02 9.
       16     1     5     0     0     0  6.3961778019e+01 -8.1789502796e+01  5.2923668910e+01  1.1653989251e+02  0.0000000000e+00 0. 9.
       15     1     7     0     0     0  4.8837473250e+00  2.7033048203e+01 -1.8629197316e+01  3.3239145071e+01  1.7768200000e+00  8.012043e-02 9.
      -16     1     7     0     0     0 -1.3346189029e+02  7.3478727488e+01  2.5658203450e+01  1.5449771182e+02  0.0000000000e+00 0. 9.
#pdf   21   21  7.010686e-02  2.804141e-02  2.685685e+02  1.259539e+00  3.365954e+00
</event>
<event>
    12  9999  1.000000e+00  1.931834e+02  7.884605e-03  1.061820e-01
       21    -1     0     0   101   102  0.0000000000e+00  0.0000000000e+00  3.7976792290e+02  3.7976792290e+02  0.0000000000e+00 0. 9.
       21    -1     0     0   103   101  0.0000000000e+00  0.0000000000e+00 -9.8986158341e+01  9.8986158341e+01  0.0000000000e+00 0. 9.
        6     2     1     2   103     0 -5.3259693214e+00 -9.0516317824e+01  1.6090974559e+02  2.5159079651e+02  1.7083446058e+02  1.177109e-13 9.
       -6     2     1     2     0   102  5.3259693214e+00  9.0516317824e+01  1.1987201896e+02  2.2716328472e+02  1.7032993646e+02  1.293229e-13 9.
       24     2     3     0     0     0  1.9893461755e+01 -4.6432002398e+01  1.7480618628e+02  1.9871738510e+02  7.9873122590e+01  9.985909e-14 9.
        5     1     3     0   103     0 -2.5219431076e+01 -4.4084315427e+01 -1.3896440689e+01  5.2873411411e+01  4.8000000000e+00 0. 9.
      -24     2     4     0     0     0  1.3237944424e+01 -2.0035717197e+00  6.9931436955e+00  8.0919618902e+01  7.9497315629e+01  3.626359e-13 9.
       -5     1     4     0     0   102 -7.9119751028e+00  9.2519889544e+01  1.1287887527e+02  1.4624366582e+02  4.8000000000e+00 0. 9.
       -3     1     5     0     0   104 -7.1229993929e+00 -5.9693120045e+01  8.5933837830e+01  1.0487554617e+02  5.0000000000e-01 0. 9.
        4     1     5     0   104     0  2.7016461148e+01  1.3261117647e+01  8.8872348450e+01  9.3841838927e+01  1.5000000000e+00 0. 9.
       13     1     7     0     0     0  3.9085773564e+01  1.3191622364e+00 -1.9549316603e+01  4.3722132013e+01  1.0566000000e-01  4.464756e+05 9.
      -14     1     7     0     0     0 -2.5847829140e+01 -3.3227339562e+00  2.6542460298e+01  3.7197486889e+01  0.0000000000e+00 0. 9.
#pdf   21   21  5.842583e-02  1.522864e-02  1.929608e+02  1.602552e+00  5.811702e+00
</event>
<event>
    12  9999  1.000000e+00  2.300451e+02  7.900379e-03  1.039697e-01
       21    -1     0     0   101   102  0.0000000000e+00  0.0000000000e+00  2.7594924057e+02  2.7594924057e+02  0.0000000000e+00 0. 9.
       21    -1     0     0   103   101  0.0000000000e+00  0.0000000000e+00 -6.0601331069e+02  6.0601331069e+02  0.0000000000e+00 0. 9.
        6     2     1     2   103     0  7.0444383492e+01  1.3736713006e+02 -5.2957696873e+02  5.7730771235e+02  1.7029471323e+02  1.187483e-13 9.
       -6     2     1     2     0   102 -7.0444383492e+01 -1.3736713006e+02  1.9951289861e+02  3.0465483891e+02  1.7081286418e+02  5.371620e-14 9.
       24     2     3     0     0     0  6.8652370665e+01  1.1421522326e+02 -2.3482940934e+02  2.8160788844e+02  7.9999288240e+01  2.370557e-16 9.
        5     1     3     0   103     0  1.7920128274e+00  2.3151906798e+01 -2.9474755939e+02  2.9569982391e+02  4.8000000000e+00 0. 9.
      -24     2     4     0     0     0  3.9647133143e+00 -6.3842322075e+01  1.6511075771e+02  1.9443161824e+02  8.0315196682e+01  4.245535e-15 9.
       -5     1     4     0     0   102 -7.4409096806e+01 -7.3524807982e+01  3.4402140900e+01  1.1022322067e+02  4.8000000000e+00 0. 9.
       -3     1     5     0     0   104  8.0527112578e+01  6.7221742348e+01 -1.3829337659e+02  1.7357616920e+02  5.0000000000e-01 0. 9.
        4     1     5     0   104     0 -1.1874741913e+01  4.6993480912e+01 -9.6536032747e+01  1.0803171924e+02  1.5000000000e+00 0. 9.
       11     1     7     0     0     0 -1.5627984688e+01 -7.5352406980e+00  1.1571585479e+02  1.1700928513e+02  5.1100000000e-04 0. 9.
      -12     1     7     0     0     0  1.9592698003e+01 -5.6307081377e+01  4.9394902925e+01  7.7422333104e+01  0.0000000000e+00 0. 9.
#pdf   21   21  4.245373e-02  9.323282e-02  2.298531e+02  2.244012e+00  8.864696e-01
</event>
<event>
    12  9999  1.000000e+00  1.759693e+02  7.876201e-03  1.074039e-01
       21    -1     0     0   101   102  0.0000000000e+00  0.0000000000e+00  2.3668160389e+02  2.3668160389e+02  0.0000000000e+00 0. 9.
       21    -1     0     0   102   103  0.0000000000e+00  0.0000000000e+00 -3.0951021770e+02  3.0951021770e+02  0.0000000000e+00 0. 9.
        6     2     1     2   101     0 -3.8921567437e+01 -1.3537484083e+01  1.7106381967e+02  2.4558074731e+02  1.7131526832e+02  2.841891e-13 9.
       -6     2     1     2     0   103  3.8921567437e+01  1.3537484083e+01 -2.4389243348e+02  3.0061107428e+02  1.7083719438e+02  1.095892e-13 9.
       24     2     3     0     0     0 -3.8270445890e+01 -1.9688756293e+01  1.9781809711e+02  2.1770435102e+02  8.0068163194e+01  3.187882e-13 9.
        5     1     3     0   101     0 -6.5112154694e-01  6.1512722098e+00 -2.6754277434e+01  2.7876396289e+01  4.8000000000e+00 0. 9.
      -24     2     4     0     0     0  3.0185292227e+00  4.5526861598e+01 -6.0198268766e+01  1.1066651769e+02  8.0879168706e+01  4.230104e-13 9.
       -5     1     4     0     0   103  3.5903038215e+01 -3.1989377515e+01 -1.8369416472e+02  1.8994455659e+02  4.8000000000e+00 0. 9.
      -11     1     5     0     0     0 -3.9759632621e+01  1.4905563791e+01  1.6360947321e+02  1.6902977236e+02  5.1100000000e-04 0. 9.
       12     1     5     0     0     0  1.4891867310e+00 -3.4594320084e+01  3.4208623892e+01  4.8674578660e+01  0.0000000000e+00 0. 9.
        1     1     7     0   104     0  3.1832484937e+01 -7.2908934355e-02 -2.8903068808e+00  3.1965218392e+01  3.3000000000e-01 0. 9.
       -2     1     7     0     0   104 -2.8813955714e+01  4.5599770532e+01 -5.7307961885e+01  7.8701299303e+01  3.3000000000e-01 0. 9.
#pdf   21   21  3.641255e-02  4.761696e-02  1.757370e+02  2.659352e+00  2.018937e+00
</event>
<event>
    12  9999  1.000000e+00  2.102286e+02  7.892235e-03  1.050990e-01
       21    -1     0     0   101   102  0.0000000000e+00  0.0000000000e+00  6.2918502074e+01  6.2918502074e+01  0.0000000000e+00 0. 9.
       21    -1     0     0   102   103  0.0000000000e+00  0.0000000000e+00 -1.2166130207e+03  1.2166130207e+03  0.0000000000e+00 0. 9.
        6     2     1     2   101     0  2.8880075438e+01  1.1818975115e+02 -1.6263873433e+02  2.6664433316e+02  1.7275695780e+02  5.488224e-14 9.
       -6     2     1     2     0   103 -2.8880075438e+01 -1.1818975115e+02 -9.9105578428e+02  1.0128871896e+03  1.7013528518e+02  9.766150e-14 9.
       24     2     3     0     0     0 -3.2205483979e+00  2.0873602857e+01 -1.4568091174e+01  8.6508722760e+01  8.2616285349e+01  3.500599e-14 9.
        5     1     3     0   101     0  3.2100623836e+01  9.7316148293e+01 -1.4807064316e+02  1.8013561040e+02  4.8000000000e+00 0. 9.
      -24     2     4     0     0     0  4.3237630237e+01 -5.7694886099e+01 -6.5358174035e+02  6.6249831635e+02  8.0850079145e+01  1.938234e-13 9.
       -5     1     4     0     0   103 -7.2117705675e+01 -6.0494865052e+01 -3.3747404393e+02  3.5038887325e+02  4.8000000000e+00 0. 9.
       -3     1     5     0     0   104 -2.9034174867e+01 -1.9493613594e+01 -1.6195485537e+01  3.8542548346e+01  5.0000000000e-01 0. 9.
        4     1     5     0   104     0  2.5813626469e+01  4.0367216452e+01  1.6273943634e+00  4.7966174415e+01  1.5000000000e+00 0. 9.
       13     1     7     0     0     0  2.5167259696e+01  1.8646509179e+00 -5.3016614154e+01  5.8716611143e+01  1.0566000000e-01  4.414548e+05 9.
      -14     1     7     0     0     0  1.8070370540e+01 -5.9559537017e+01 -6.0056512619e+02  6.0378170521e+02  0.0000000000e+00 0. 9.
#pdf   21   21  9.679770e-03  1.871712e-01  2.091624e+02  8.327159e+00  3.006848e-01
</event>
<event>
    12  9999  1.000000e+00  2.236598e+02  7.897832e-03  1.043199e-01
       21    -1     0     0   101   102  0.0000000000e+00  0.0000000000e+00  4.7701286955e+01  4.7701286955e+01  0.0000000000e+00 0. 9.
       21    -1     0     0   102   103  0.0000000000e+00  0.0000000000e+00 -1.0815813467e+03  1.0815813467e+03  0.0000000000e+00 0. 9.
        6     2     1     2   101     0  1.1906743983e+02 -8.1098300088e+01 -4.1860728464e+02  4.7464012473e+02  1.7116424786e+02  6.742557e-14 9.
       -6     2     1     2     0   103 -1.1906743983e+02  8.1098300088e+01 -6.1527277512e+02  6.5464250894e+02  1.7100361751e+02  1.245576e-13 9.
       24     2     3     0     0     0  3.5313563294e+01 -8.9077089928e+01 -1.6795934018e+02  2.1020524620e+02  8.2426511962e+01  9.294091e-14 9.
        5     1     3     0   101     0  8.3753876532e+01  7.9787898394e+00 -2.5064794446e+02  2.6443487853e+02  4.8000000000e+00 0. 9.
      -24     2     4     0     0     0 -6.9052135782e+01 -5.8253808994e-01 -1.7752356266e+02  2.0651227902e+02  7.9775743665e+01  9.221286e-14 9.
       -5     1     4     0     0   103 -5.0015304044e+01  8.1680838178e+01 -4.3774921246e+02  4.4813022992e+02  4.8000000000e+00 0. 9.
       -1     1     5     0     0   104 -6.4684735575e+00 -6.0141833216e+01 -1.3927861420e+02  1.5184703661e+02  3.3000000000e-01 0. 9.
        2     1     5     0   104     0  4.1782036851e+01 -2.8935256712e+01 -2.8680725984e+01  5.8358209597e+01  3.3000000000e-01 0. 9.
        1     1     7     0   105     0  1.0573107996e+01  2.0561783704e+01 -3.9536723182e+01  4.5802171802e+01  3.3000000000e-01 0. 9.
       -2     1     7     0     0   105 -7.9625243778e+01 -2.1144321794e+01 -1.3798683948e+02  1.6071010722e+02  3.3000000000e-01 0. 9.
#pdf   21   21  7.338660e-03  1.663971e-01  2.235984e+02  1.026303e+01  3.681967e-01
</event>
<event>
    12  9999  1.000000e+00  2.097075e+02  7.892011e-03  1.051305e-01
        2    -1     0     0   101     0  0.0000000000e+00  0.0000000000e+00  7.0404564942e+02  7.0404564942e+02  0.0000000000e+00 0. 9.
       -2    -1     0     0     0   102  0.0000000000e+00  0.0000000000e+00 -7.7079550162e+01  7.7079550162e+01  0.0000000000e+00 0. 9.
        6     2     1     2   101     0  7.6635862357e+01  9.5428337453e+01  4.8467209260e+02  5.2846521385e+02  1.7143168294e+02  4.662509e-14 9.
       -6     2     1     2     0   102 -7.6635862357e+01 -9.5428337453e+01  1.4229400666e+02  2.5265998574e+02  1.6914449761e+02  3.509125e-14 9.
       24     2     3     0     0     0 -1.4650783823e+01  8.5106251830e+01  2.9842193050e+02  3.2073471512e+02  7.9733238420e+01  6.342578e-14 9.
        5     1     3     0   101     0  9.1286646181e+01  1.0322085623e+01  1.8625016209e+02  2.0773049873e+02  4.8000000000e+00 0. 9.
      -24     2     4     0     0     0 -1.0899202775e+02 -5.4119487571e+01  6.8240650311e+01  1.6177389162e+02  8.1889099430e+01  1.315589e-13 9.
       -5     1     4     0     0   102  3.2356165393e+01 -4.1308849882e+01  7.4053356352e+01  9.0886094121e+01  4.8000000000e+00 0. 9.
      -13     1     5     0     0     0 -3.3574044689e+01  1.6753025628e+01  1.6938135482e+02  1.7348756401e+02  1.0566000000e-01  6.674237e+05 9.
       14     1     5     0     0     0  1.8923260866e+01  6.8353226202e+01  1.2904057569e+02  1.4724715110e+02  0.0000000000e+00 0. 9.
        1     1     7     0   103     0  4.2677106299e+00 -3.0726141652e+01  1.4026671597e+01  3.4046520394e+01  3.3000000000e-01 0. 9.
       -2     1     7     0     0   103 -1.1325973838e+02 -2.3393345919e+01  5.4213978714e+01  1.2772737122e+02  3.3000000000e-01 0. 9.
#pdf    2   -2  1.083147e-01  1.185839e-02  2.087809e+02  5.676073e-01  4.724219e-01
</event>
<event>
    12  9999  1.000000e+00  1.795111e+02  7.877994e-03  1.071406e-01
       21    -1     0     0   101   102  0.0000000000e+00  0.0000000000e+00  6.3091490331e+02  6.3091490331e+02  0.0000000000e+00 0. 9.
       21    -1     0     0   102   103  0.0000000000e+00  0.0000000000e+00 -5.3724743886e+01  5.3724743886e+01  0.0000000000e+00 0. 9.
        6     2     1     2   101     0  4.2875641609e+01 -2.1751496105e+01  3.6676377809e+02  4.0897555680e+02  1.7445311380e+02  4.186846e-13 9.
       -6     2     1     2     0   103 -4.2875641609e+01  2.1751496105e+01  2.1042638133e+02  2.7566409039e+02  1.7146422527e+02  5.404661e-14 9.
       24     2     3     0     0     0  2.1487914316e+01  4.3873169040e+01  1.1823914768e+02  1.5099965972e+02  8.0211070107e+01  2.152603e-13 9.
        5     1     3     0   101     0  2.1387727293e+01 -6.5624665144e+01  2.4852463041e+02  2.5797589708e+02  4.8000000000e+00 0. 9.
      -24     2     4     0     0     0 -5.5106505390e+01 -4.4681904455e+01  1.0163226521e+02  1.4751499581e+02  7.9989731446e+01  3.823595e-14 9.
       -5     1     4     0     0   103  1.2230863781e+01  6.6433400559e+01  1.0879411612e+02  1.2814909458e+02  4.8000000000e+00 0. 9.
       -3     1     5     0     0   104  8.4268829478e+00  2.6800552348e+01  1.2523187864e+02  1.2834545333e+02  5.0000000000e-01 0. 9.
        4     1     5     0   104     0  1.3061031368e+01  1.7072616691e+01 -6.9927309557e+00  2.2654206393e+01  1.5000000000e+00 0. 9.
        1     1     7     0   105     0 -4.3453236572e+00  1.7097926152e+01 -6.8735746459e-01  1.7657923906e+01  3.3000000000e-01 0. 9.
       -2     1     7     0     0   105 -5.0761181733e+01 -6.1779830607e+01  1.0231962267e+02  1.2985707191e+02  3.3000000000e-01 0. 9.
#pdf   21   21  9.706383e-02  8.265345e-03  1.780770e+02  8.617517e-01  9.354392e+00
</event>
<event>
    12  9999  1.000000e+00  2.051419e+02  7.890023e-03  1.054104e-01
       21    -1     0     0   101   102  0.0000000000e+00  0.0000000000e+00  9.5338831666e+01  9.5338831666e+01  0.0000000000e+00 0. 9.
       21    -1     0     0   103   101  0.0000000000e+00  0.0000000000e+00 -8.5847314043e+02  8.5847314043e+02  0.0000000000e+00 0. 9.
        6     2     1     2   103     0 -7.5931699939e+01 -8.4682527273e+01 -7.1384012463e+02  7.4269301855e+02  1.7055334296e+02  3.896786e-13 9.
       -6     2     1     2     0   102  7.5931699939e+01  8.4682527273e+01 -4.9294184131e+01  2.1111895354e+02  1.7089336580e+02  8.145861e-14 9.
       24     2     3     0     0     0 -6.2870140072e+01  1.5128094113e+01 -3.6707258219e+02  3.8157872505e+02  8.1722267871e+01  1.799521e-13 9.
        5     1     3     0   103     0 -1.3061559867e+01 -9.9810621386e+01 -3.4676754244e+02  3.6111429351e+02  4.8000000000e+00 0. 9.
      -24     2     4     0     0     0 -3.9631726563e+00  7.2250460276e+01  7.9458050151e+00  1.1193627706e+02  8.5033867113e+01  1.845283e-13 9.
       -5     1     4     0     0   102  7.9894872595e+01  1.2432066997e+01 -5.7239989146e+01  9.9182676483e+01  4.8000000000e+00 0. 9.
       -3     1     5     0     0   104 -1.2867320817e+01 -2.7719406096e+01 -1.9406184307e+02  1.9645402097e+02  5.0000000000e-01 0. 9.
        4     1     5     0   104     0 -5.0002819255e+01  4.2847500209e+01 -1.7301073912e+02  1.8512470408e+02  1.5000000000e+00 0. 9.
        3     1     7     0   105     0  3.5884083018e+01  9.2040889287e+00  3.2098859906e+00  3.7187847950e+01  5.0000000000e-01 0. 9.
       -4     1     7     0     0   105 -3.9847255674e+01  6.3046371347e+01  4.7359190246e+00  7.4748429106e+01  1.5000000000e+00 0. 9.
#pdf   21   21  1.466751e-02  1.320728e-01  2.050005e+02  5.991462e+00  5.443505e-01
</event>
<event>
    12  9999  1.000000e+00  2.727392e+02  7.915816e-03  1.019011e-01
       21    -1     0     0   101   102  0.0000000000e+00  0.0000000000e+00  2.5251441225e+02  2.5251441225e+02  0.0000000000e+00 0. 9.
       21    -1     0     0   103   101  0.0000000000e+00  0.0000000000e+00 -4.2884779789e+02  4.2884779789e+02  0.0000000000e+00 0. 9.
        6     2     1     2   103     0 -2.0278781827e+02 -6.2240310068e+01 -2.7877273034e+02  3.8994693012e+02  1.7131146400e+02  8.489930e-14 9.
       -6     2     1     2     0   102  2.0278781827e+02  6.2240310068e+01  1.0243934469e+02  2.9141528002e+02  1.7155841761e+02  2.095237e-14 9.
       24     2     3     0     0     0 -7.0673902684e+01  2.9208550967e+01 -1.3062091665e+02  1.7134002087e+02  8.0297191194e+01  2.041894e-15 9.
        5     1     3     0   103     0 -1.3211391559e+02 -9.1448861035e+01 -1.4815181369e+02  2.1860690926e+02  4.8000000000e+00 0. 9.
      -24     2     4     0     0     0  1.9164444684e+02  2.2177091865e+01  3.3236625826e+01  2.1053702288e+02  7.7470944859e+01  5.196621e-14 9.
       -5     1     4     0     0   102  1.1143371429e+01  4.0063218203e+01  6.9202718868e+01  8.0878257142e+01  4.8000000000e+00 0. 9.
       -1     1     5     0     0   104 -6.9555272530e+01 -8.1126464223e+00 -6.3494323205e+01  9.4527186290e+01  3.3000000000e-01 0. 9.
        2     1     5     0   104     0 -1.1186301540e+00  3.7321197389e+01 -6.7126593445e+01  7.6812834576e+01  3.3000000000e-01 0. 9.
       13     1     7     0     0     0  1.4566317144e+02  3.1659896626e+01  5.4871938646e+01  1.5884284492e+02  1.0566000000e-01  9.035053e+04 9.
      -14     1     7     0     0     0  4.5981275404e+01 -9.4828047614e+00 -2.1635312820e+01  5.1694177958e+01  0.0000000000e+00 0. 9.
#pdf   21   21  3.884837e-02  6.597658e-02  2.726616e+02  2.437843e+00  1.354166e+00
</event>
<event>
    12  9999  1.000000e+00  1.861588e+02  7.881268e-03  1.066636e-01
       21    -1     0     0   101   102  0.0000000000e+00  0.0000000000e+00  1.4822632478e+02  1.4822632478e+02  0.0000000000e+00 0. 9.
       21    -1     0     0   102   103  0.0000000000e+00  0.0000000000e+00 -3.8509409031e+02  3.8509409031e+02  0.0000000000e+00 0. 9.
        6     2     1     2   101     0 -6.6085278737e+01 -3.3323926063e+01  4.8784674696e+01  1.9225483936e+02  1.7059962092e+02  2.125912e-13 9.
       -6     2     1     2     0   103  6.6085278737e+01  3.3323926063e+01 -2.8565244023e+02  3.4106557574e+02  1.7102824982e+02  3.078477e-13 9.
       24     2     3     0     0     0 -5.1835651716e+01 -6.7831568317e+01  8.0980665570e+01  1.4272251584e+02  8.0769993707e+01  2.016600e-13 9.
        5     1     3     0   101     0 -1.4249627020e+01  3.4507642254e+01 -3.2195990874e+01  4.9532323512e+01  4.8000000000e+00 0. 9.
      -24     2     4     0     0     0 -7.9592810100e-01 -1.4386885586e+01 -2.2193557188e+02  2.3698725577e+02  8.1853193910e+01  3.490739e-14 9.
       -5     1     4     0     0   103  6.6881206838e+01  4.7710811649e+01 -6.3716868344e+01  1.0407831997e+02  4.8000000000e+00 0. 9.
       -3     1     5     0     0   104 -5.6672574281e+00  4.0792220895e-01 -1.5102075779e+01  1.6143323701e+01  5.0000000000e-01 0. 9.
        4     1     5     0   104     0 -4.6168394288e+01 -6.8239490526e+01  9.6082741349e+01  1.2657919214e+02  1.5000000000e+00 0. 9.
       13     1     7     0     0     0  3.5659800057e+01 -2.5062716778e+01 -1.4094887893e+02  1.4753426297e+02  1.0566000000e-01  5.028452e+05 9.
      -14     1     7     0     0     0 -3.6455728158e+01  1.0675831191e+01 -8.0986692946e+01  8.9452992803e+01  0.0000000000e+00 0. 9.
#pdf   21   21  2.280405e-02  5.924524e-02  1.859623e+02  4.116878e+00  1.581418e+00
</event>
<event>
    12  9999  1.000000e+00  1.763158e+02  7.876378e-03  1.073779e-01
       21    -1     0     0   101   102  0.0000000000e+00  0.0000000000e+00  4.5061044480e+01  4.5061044480e+01  0.0000000000e+00 0. 9.
       21    -1     0     0   102   103  0.0000000000e+00  0.0000000000e+00 -7.0660857050e+02  7.0660857050e+02  0.0000000000e+00 0. 9.
        6     2     1     2   101     0  4.2181892050e+01 -6.9228930974e+00 -2.7311629174e+02  3.2512837679e+02  1.7113945810e+02  8.505243e-14 9.
       -6     2     1     2     0   103 -4.2181892050e+01  6.9228930974e+00 -3.8843123429e+02  4.2654123819e+02  1.7097182704e+02  3.029868e-13 9.
       24     2     3     0     0     0 -3.0095662067e+01 -1.4557077154e+01 -2.2248166335e+02  2.3641968958e+02  7.2653435721e+01  2.706896e-14 9.
        5     1     3     0   101     0  7.2277554117e+01  7.6341840570e+00 -5.0634628382e+01  8.8708687211e+01  4.8000000000e+00 0. 9.
      -24     2     4     0     0     0 -3.7963047137e+01 -4.2371497096e+01 -3.5127338511e+02  3.6448093435e+02  7.8846837024e+01  1.528431e-14 9.
       -5     1     4     0     0   103 -4.2188449134e+00  4.9294390193e+01 -3.7157849181e+01  6.2060303840e+01  4.8000000000e+00 0. 9.
       -3     1     5     0     0   104 -1.6415628655e+01 -2.9413744092e+01 -3.7809228994e+01  5.0640191575e+01  5.0000000000e-01 0. 9.
        4     1     5     0   104     0 -1.3680033412e+01  1.4856666938e+01 -1.8467243436e+02  1.8577949801e+02  1.5000000000e+00 0. 9.
       13     1     7     0     0     0 -1.0342371832e+00 -9.9413372138e+00 -2.6501735043e+02  2.6520578242e+02  1.0566000000e-01  3.236770e+04 9.
      -14     1     7     0     0     0 -3.6928809953e+01 -3.2430159882e+01 -8.6256034671e+01  9.9275151935e+01  0.0000000000e+00 0. 9.
#pdf   21   21  6.932468e-03  1.087090e-01  1.762345e+02  1.063590e+01  7.380899e-01
</event>
<event>
    12  9999  1.000000e+00  2.172694e+02  7.895211e-03  1.046831e-01
       21    -1     0     0   101   102  0.0000000000e+00  0.0000000000e+00  1.9534097887e+02  1.9534097887e+02  0.0000000000e+00 0. 9.
       21    -1     0     0   103   101  0.0000000000e+00  0.0000000000e+00 -2.4742895889e+02  2.4742895889e+02  0.0000000000e+00 0. 9.
        6     2     1     2   103     0  2.6813223512e+01 -1.3453210291e+02  7.7518337195e+00  2.1749252858e+02  1.6859737066e+02  1.102632e-13 9.
       -6     2     1     2     0   102 -2.6813223512e+01  1.3453210291e+02 -5.9839813736e+01  2.2527740917e+02  1.6837835997e+02  3.893902e-14 9.
       24     2     3     0     0     0  2.0256040440e+01 -3.6147373801e+01 -4.9402500645e+01  1.0342145640e+02  8.0860687401e+01  1.914880e-14 9.
        5     1     3     0   103     0  6.5571830726e+00 -9.8384729110e+01  5.7154334365e+01  1.1407107218e+02  4.8000000000e+00 0. 9.
      -24     2     4     0     0     0  8.7587075023e+00  1.0713691464e+02  1.7519497006e+01  1.3570419010e+02  8.0954684859e+01  3.249000e-14 9.
       -5     1     4     0     0   102 -3.5571931015e+01  2.7395188276e+01 -7.7359310741e+01  8.9573219073e+01  4.8000000000e+00 0. 9.
      -11     1     5     0     0     0 -4.6312288036e-01  1.9969205007e+01 -3.7414673759e+01  4.2412750962e+01  5.1100000000e-04 0. 9.
       12     1     5     0     0     0  2.0719163320e+01 -5.6116578808e+01 -1.1987826886e+01  6.1008705438e+01  0.0000000000e+00 0. 9.
       15     1     7     0     0     0 -2.4610008447e+01  9.1378624571e+01  2.5334698547e+01  9.7983210725e+01  1.7768200000e+00  1.076918e-03 9.
      -16     1     7     0     0     0  3.3368715949e+01  1.5758290064e+01 -7.8152015412e+00  3.7720979374e+01  0.0000000000e+00 0. 9.
#pdf   21   21  3.005246e-02  3.806599e-02  2.171845e+02  3.176907e+00  2.518349e+00
</event>
<event>
    12  9999  1.000000e+00  2.199642e+02  7.896325e-03  1.045284e-01
       21    -1     0     0   101   102  0.0000000000e+00  0.0000000000e+00  3.3001518463e+02  3.3001518463e+02  0.0000000000e+00 0. 9.
       21    -1     0     0   102   103  0.0000000000e+00  0.0000000000e+00 -2.1946583705e+02  2.1946583705e+02  0.0000000000e+00 0. 9.
        6     2     1     2   101     0  3.7721077761e+00 -1.3640120383e+02  2.1372562717e+02  3.0738582914e+02  1.7374661737e+02  6.959269e-14 9.
       -6     2     1     2     0   103 -3.7721077761e+00  1.3640120383e+02 -1.0317627959e+02  2.4209519253e+02  1.7130446688e+02  3.529975e-14 9.
       24     2     3     0     0     0 -3.2290630896e+01 -8.8983542094e+01  5.1624922785e+01  1.3461825659e+02  8.0598925224e+01  8.389604e-14 9.
        5     1     3     0   101     0  3.6062738672e+01 -4.7417661732e+01  1.6210070438e+02  1.7276757255e+02  4.8000000000e+00 0. 9.
      -24     2     4     0     0     0 -2.9549942924e+01  1.6090867050e+02 -8.2617579092e+01  2.0073321876e+02  8.1874057985e+01  8.718402e-14 9.
       -5     1     4     0     0   103  2.5777835148e+01 -2.4507466673e+01 -2.0558700499e+01  4.1361973767e+01  4.8000000000e+00 0. 9.
       -1     1     5     0     0   104  2.4334249170e+01 -1.6175443824e+01  6.6219055632e-01  2.9229233003e+01  3.3000000000e-01 0. 9.
        4     1     5     0   104     0 -5.6624880067e+01 -7.2808098270e+01  5.0962732229e+01  1.0538902359e+02  1.5000000000e+00 0. 9.
        1     1     7     0   105     0 -1.2214422380e+01  5.8943157377e+01 -7.6195510607e+01  9.7104853907e+01  3.3000000000e-01 0. 9.
       -2     1     7     0     0   105 -1.7335520544e+01  1.0196551312e+02 -6.4220684848e+00  1.0362836486e+02  3.3000000000e-01 0. 9.
#pdf   21   21  5.077157e-02  3.376397e-02  2.190085e+02  1.858268e+00  2.837028e+00
</event>
<event>
    12  9999  1.000000e+00  2.393898e+02  7.903984e-03  1.034783e-01
       21    -1     0     0   101   102  0.0000000000e+00  0.0000000000e+00  2.3549201064e+02  2.3549201064e+02  0.0000000000e+00 0. 9.
       21    -1     0     0   102   103  0.0000000000e+00  0.0000000000e+00 -2.7753082901e+02  2.7753082901e+02  0.0000000000e+00 0. 9.
        6     2     1     2   101     0  1.5769201413e+02 -5.8564893890e+01  6.8966536606e+01  2.4951303560e+02  1.7089105783e+02  1.420851e-13 9.
       -6     2     1     2     0   103 -1.5769201413e+02  5.8564893890e+01 -1.1100535498e+02  2.6350980406e+02  1.6976044853e+02  4.236208e-16 9.
       24     2     3     0     0     0  1.6738267978e+02 -1.1438426396e+01  3.6616978600e+01  1.9133789621e+02  8.4389503588e+01  2.214360e-13 9.
        5     1     3     0   101     0 -9.6906656519e+00 -4.7126467494e+01  3.2349558006e+01  5.8175139385e+01  4.8000000000e+00 0. 9.
      -24     2     4     0     0     0 -1.3443570391e+02 -4.5901008844e+00 -1.1814134511e+02  1.9566165239e+02  7.8943506870e+01  3.489600e-14 9.
       -5     1     4     0     0   103 -2.3256310215e+01  6.3154994775e+01  7.1359901372e+00  6.7848151670e+01  4.8000000000e+00 0. 9.
       -3     1     5     0     0   104  4.3685594778e+01 -6.2748814065e+00  5.0127112580e+01  6.6789091500e+01  5.0000000000e-01 0. 9.
        4     1     5     0   104     0  1.2369708500e+02 -5.1635449895e+00 -1.3510133980e+01  1.2454880471e+02  1.5000000000e+00 0. 9.
        3     1     7     0   105     0 -2.2737535424e+01  3.1320003886e+00 -7.0194440026e+01  7.3853330014e+01  5.0000000000e-01 0. 9.
       -4     1     7     0     0   105 -1.1169816849e+02 -7.7221012729e+00 -4.7946905088e+01  1.2180832237e+02  1.5000000000e+00 0. 9.
#pdf   21   21  3.622954e-02  4.269705e-02  2.389879e+02  2.634329e+00  2.225693e+00
</event>
<event>
    12  9999  1.000000e+00  1.876104e+02  7.881968e-03  1.065622e-01
       21    -1     0     0   101   102  0.0000000000e+00  0.0000000000e+00  7.2389176055e+02  7.2389176055e+02  0.0000000000e+00 0. 9.
       21    -1     0     0   102   103  0.0000000000e+00  0.0000000000e+00 -1.1770967676e+02  1.1770967676e+02  0.0000000000e+00 0. 9.
        6     2     1     2   101     0  6.7276072918e+01  3.5521992720e+01  6.2511963008e+02  6.5251509652e+02  1.7091962240e+02  7.789955e-14 9.
       -6     2     1     2     0   103 -6.7276072918e+01 -3.5521992720e+01 -1.8937546294e+01  1.8908634079e+02  1.7206723005e+02  3.382285e-13 9.
       24     2     3     0     0     0  6.8851342672e+01  7.7815646395e+00  6.1308392938e+02  6.2185712992e+02  7.7674483787e+01  3.103322e-13 9.
        5     1     3     0   101     0 -1.5752697544e+00  2.7740428080e+01  1.2035700701e+01  3.0657966603e+01  4.8000000000e+00 0. 9.
      -24     2     4     0     0     0 -7.6351504146e+01 -6.2823046057e+01 -5.4519600990e+01  1.4307728101e+02  8.7877381316e+01  3.197705e-13 9.
       -5     1     4     0     0   103  9.0754312281e+00  2.7301053338e+01  3.5582054696e+01  4.6009059778e+01  4.8000000000e+00 0. 9.
       -1     1     5     0     0   104  2.8130157988e+01  2.2479246091e+00  5.1138377024e+01  5.8408915913e+01  3.3000000000e-01 0. 9.
        4     1     5     0   104     0  4.0721184684e+01  5.5336400304e+00  5.6194555236e+02  5.6344821401e+02  1.5000000000e+00 0. 9.
       15     1     7     0     0     0 -7.1421280929e+01 -8.7354687290e+00 -9.6324207547e+00  7.2617135736e+01  1.7768200000e+00  1.534550e-01 9.
      -16     1     7     0     0     0 -4.9302232162e+00 -5.4087577328e+01 -4.4887180235e+01  7.0460145271e+01  0.0000000000e+00 0. 9.
#pdf   21   21  1.113680e-01  1.810918e-02  1.870866e+02  7.086003e-01  5.029735e+00
</event>
<event>
    12  9999  1.000000e+00  1.917497e+02  7.883934e-03  1.062785e-01
       21    -1     0     0   101   102  0.0000000000e+00  0.0000000000e+00  5.5563809933e+02  5.5563809933e+02  0.0000000000e+00 0. 9.
       21    -1     0     0   102   103  0.0000000000e+00  0.0000000000e+00 -7.8510494247e+01  7.8510494247e+01  0.0000000000e+00 0. 9.
        6     2     1     2   101     0  5.6455843935e+01  6.9674503072e+01  3.6377692833e+02  4.1100650294e+02  1.6897009553e+02  1.116336e-13 9.
       -6     2     1     2     0   103 -5.6455843935e+01 -6.9674503072e+01  1.1335067676e+02  2.2314209064e+02  1.7000652341e+02  2.006230e-14 9.
       24     2     3     0     0     0 -1.5038379392e+01  5.3293951219e+01  2.9254830918e+02  3.0865269190e+02  8.1336172298e+01  1.570281e-14 9.
        5     1     3     0   101     0  7.1494223327e+01  1.6380551853e+01  7.1228619150e+01  1.0235381104e+02  4.8000000000e+00 0. 9.
      -24     2     4     0     0     0 -4.7651223441e+01 -1.1157300954e+02  6.7355174844e+01  1.6012120218e+02  7.9893080160e+01  4.339227e-14 9.
       -5     1     4     0     0   103 -8.8046204943e+00  4.1898506463e+01  4.5995501912e+01  6.3020888458e+01  4.8000000000e+00 0. 9.
      -13     1     5     0     0     0  2.3743008615e+01  3.1092340199e+01  5.8493700675e+01  7.0370364926e+01  1.0566000000e-01  1.339109e+05 9.
       14     1     5     0     0     0 -3.8781388007e+01  2.2201611020e+01  2.3405460850e+02  2.3828232698e+02  0.0000000000e+00 0. 9.
        1     1     7     0   104     0 -2.1617395841e+01 -4.7124671027e+01 -1.3420199683e+01  5.3556111527e+01  3.3000000000e-01 0. 9.
       -2     1     7     0     0   104 -2.6033827599e+01 -6.4448338508e+01  8.0775374527e+01  1.0656509065e+02  3.3000000000e-01 0. 9.
#pdf   21   21  8.548278e-02  1.207854e-02  1.912922e+02  1.011809e+00  7.005684e+00
</event>
<event>
    12  9999  1.000000e+00  2.899215e+02  7.921371e-03  1.011789e-01
       21    -1     0     0   101   102  0.0000000000e+00  0.0000000000e+00  1.1206629532e+02  1.1206629532e+02  0.0000000000e+00 0. 9.
       21    -1     0     0   102   103  0.0000000000e+00  0.0000000000e+00 -9.7912291396e+02  9.7912291396e+02  0.0000000000e+00 0. 9.
        6     2     1     2   101     0 -7.2358930617e+01 -2.2351164554e+02 -1.6930183602e+02  3.3549086574e+02  1.6940406956e+02  6.829467e-14 9.
       -6     2     1     2     0   103  7.2358930617e+01  2.2351164554e+02 -6.9775478261e+02  7.5569834354e+02  1.7036718943e+02  4.073038e-13 9.
       24     2     3     0     0     0 -7.0724222788e+01 -2.2186392942e+02 -1.9207937693e+02  3.1209762724e+02  7.9277506387e+01  3.604411e-13 9.
        5     1     3     0   101     0 -1.6347078289e+00 -1.6477161212e+00  2.2777540907e+01  2.3393238507e+01  4.8000000000e+00 0. 9.
      -24     2     4     0     0     0  8.0582789568e+01  1.1917156349e+02 -5.5198975909e+02  5.7618520569e+02  8.1248074400e+01  3.534976e-14 9.
       -5     1     4     0     0   103 -8.2238589503e+00  1.0434008205e+02 -1.4576502352e+02  1.7951313785e+02  4.8000000000e+00 0. 9.
       -1     1     5     0     0   104 -2.9028656521e+01 -1.3071103219e+01 -3.6270614964e+01  4.8261610506e+01  3.3000000000e-01 0. 9.
        2     1     5     0   104     0 -4.1695566267e+01 -2.0879282620e+02 -1.5580876196e+02  2.6383601673e+02  3.3000000000e-01 0. 9.
        3     1     7     0   105     0  1.1865101248e+01  5.5026009382e+01 -3.3509870184e+02  3.3979410282e+02  5.0000000000e-01 0. 9.
       -4     1     7     0     0   105  6.8717688320e+01  6.4145554110e+01 -2.1689105724e+02  2.3639110286e+02  1.5000000000e+00 0. 9.
#pdf   21   21  1.724097e-02  1.506343e-01  2.896394e+02  5.209440e+00  4.207776e-01
</event>
<event>
    12  9999  1.000000e+00  1.698412e+02  7.873014e-03  1.078855e-01
       21    -1     0     0   101   102  0.0000000000e+00  0.0000000000e+00  1.0843726505e+02  1.0843726505e+02  0.0000000000e+00 0. 9.
       21    -1     0     0   103   101  0.0000000000e+00  0.0000000000e+00 -2.8082458755e+02  2.8082458755e+02  0.0000000000e+00 0. 9.
        6     2     1     2   103     0  1.4960189925e+01 -2.9850598103e+01 -4.3692531759e+01  1.7935120904e+02  1.7071307321e+02  5.179666e-14 9.
       -6     2     1     2     0   102 -1.4960189925e+01  2.9850598103e+01 -1.2869479074e+02  2.0991064355e+02  1.6243541369e+02  1.021381e-14 9.
       24     2     3     0     0     0  3.1667977066e+01 -1.8981525516e+01 -9.2189151483e+01  1.2669905795e+02  7.8680699993e+01  2.694461e-14 9.
        5     1     3     0   103     0 -1.6707787140e+01 -1.0869072586e+01  4.8496619724e+01  5.2652151092e+01  4.8000000000e+00 0. 9.
      -24     2     4     0     0     0  4.7121882504e+01  2.5751996585e+01 -6.4150555687e+01  1.2013324923e+02  8.6215234372e+01  1.129708e-13 9.
       -5     1     4     0     0   102 -6.2082072429e+01  4.0986015180e+00 -6.4544235056e+01  8.9777394317e+01  4.8000000000e+00 0. 9.
       -3     1     5     0     0   104 -2.5182125334e+01 -1.2341217414e+01 -1.9465348647e+01  3.4140809620e+01  5.0000000000e-01 0. 9.
        4     1     5     0   104     0  5.6850102400e+01 -6.6403081029e+00 -7.2723802836e+01  9.2558248328e+01  1.5000000000e+00 0. 9.
       11     1     7     0     0     0 -2.2100014530e+01  1.6423555070e+01 -3.7435746920e+00  2.7787733897e+01  5.1100000000e-04 0. 9.
      -12     1     7     0     0     0  6.9221897034e+01  9.3284415147e+00 -6.0406980995e+01  9.2345515338e+01  0.0000000000e+00 0. 9.
#pdf   21   21  1.668266e-02  4.320378e-02  1.658316e+02  5.393064e+00  2.242785e+00
</event>
<event>
    12  9999  1.000000e+00  1.751892e+02  7.875802e-03  1.074628e-01
       21    -1     0     0   101   102  0.0000000000e+00  0.0000000000e+00  3.0150155567e+02  3.0150155567e+02  0.0000000000e+00 0. 9.
       21    -1     0     0   102   103  0.0000000000e+00  0.0000000000e+00 -1.3636679700e+02  1.3636679700e+02  0.0000000000e+00 0. 9.
        6     2     1     2   101     0 -9.8659881204e+00 -3.2483531355e+01  1.9310709350e+02  2.6132572664e+02  1.7276651385e+02  1.879259e-13 9.
       -6     2     1     2     0   103  9.8659881204e+00  3.2483531355e+01 -2.7972334836e+01  1.7654262603e+02  1.7097464654e+02  2.833315e-13 9.
       24     2     3     0     0     0  1.6267044090e+01 -2.6297207655e+01  3.5468412120e+01  1.0134385316e+02  8.9757498073e+01  1.100903e-13 9.
        5     1     3     0   101     0 -2.6133032211e+01 -6.1863237004e+00  1.5763868138e+02  1.5998187348e+02  4.8000000000e+00 0. 9.
      -24     2     4     0     0     0  2.6425803166e+01  1.8820288136e+01 -8.1149515076e+01  1.1899469655e+02  8.0758700404e+01  1.363659e-13 9.
       -5     1     4     0     0   103 -1.6559815045e+01  1.3663243220e+01  5.3177180240e+01  5.7547929484e+01  4.8000000000e+00 0. 9.
       -1     1     5     0     0   104 -3.6394273714e+01 -1.7863199672e+01  7.8964632143e+00  4.1304964508e+01  3.3000000000e-01 0. 9.
        2     1     5     0   104     0  5.2661317805e+01 -8.4340079824e+00  2.7571948905e+01  6.0038888648e+01  3.3000000000e-01 0. 9.
       11     1     7     0     0     0 -1.4314603591e+01 -2.1393500554e+01 -9.8557134710e+00  2.7563106324e+01  5.1100000000e-04 0. 9.
      -12     1     7     0     0     0  4.0740406757e+01  4.0213788690e+01 -7.1293801605e+01  9.1431590224e+01  0.0000000000e+00 0. 9.
#pdf   21   21  4.638485e-02  2.097951e-02  1.743125e+02  2.076836e+00  4.435999e+00
</event>
<event>
    12  9999  1.000000e+00  1.797201e+02  7.878099e-03  1.071253e-01
       21    -1     0     0   101   102  0.0000000000e+00  0.0000000000e+00  2.1984598929e+03  2.1984598929e+03  0.0000000000e+00 0. 9.
       21    -1     0     0   103   101  0.0000000000e+00  0.0000000000e+00 -1.8430538440e+01  1.8430538440e+01  0.0000000000e+00 0. 9.
        6     2     1     2   103     0 -7.5984649823e+01  1.9958388945e+01  5.2668303009e+02  5.5205843763e+02  1.4560734897e+02  1.382569e-13 9.
       -6     2     1     2     0   102  7.5984649823e+01 -1.9958388945e+01  1.6533463243e+03  1.6648319937e+03  1.7871624068e+02  5.498825e-14 9.
       24     2     3     0     0     0 -8.2265202441e+01  3.8011048786e+01  2.8412443199e+02  3.0870055841e+02  7.9730411654e+01  6.798073e-14 9.
        5     1     3     0   103     0  6.2805526173e+00 -1.8052659840e+01  2.4255859810e+02  2.4335787922e+02  4.8000000000e+00 0. 9.
      -24     2     4     0     0     0  7.1191217445e+01 -2.6552620020e+01  5.2000672628e+02  5.3145291085e+02  7.9132610225e+01  1.478723e-15 9.
       -5     1     4     0     0   102  4.7934323781e+00  6.5942310743e+00  1.1333395980e+03  1.1333790828e+03  4.8000000000e+00 0. 9.
       -1     1     5     0     0   104 -5.9262198647e+01  6.2016151446e+01  1.7995871324e+02  1.9935711324e+02  3.3000000000e-01 0. 9.
        2     1     5     0   104     0 -2.3003003794e+01 -2.4005102661e+01  1.0416571876e+02  1.0934344517e+02  3.3000000000e-01 0. 9.
        1     1     7     0   105     0  5.7710873767e+00  2.3251958860e+01  1.8296345578e+02  1.8452559197e+02  3.3000000000e-01 0. 9.
       -2     1     7     0     0   105  6.5420130069e+01 -4.9804578880e+01  3.3704327050e+02  3.4692731888e+02  3.3000000000e-01 0. 9.
#pdf   21   21  3.382246e-01  2.835467e-03  1.654494e+02  7.236358e-02  1.950104e+01
</event>
<event>
    12  9999  1.000000e+00  2.850698e+02  7.919836e-03  1.013774e-01
       21    -1     0     0   101   102  0.0000000000e+00  0.0000000000e+00  4.1688516793e+02  4.1688516793e+02  0.0000000000e+00 0. 9.
       21    -1     0     0   102   103  0.0000000000e+00  0.0000000000e+00 -2.2270836400e+02  2.2270836400e+02  0.0000000000e+00 0. 9.
        6     2     1     2   101     0 -1.2351521433e+02  1.9253382215e+02  2.1003647420e+02  3.5412201324e+02  1.7018166447e+02  1.066526e-13 9.
       -6     2     1     2     0   103  1.2351521433e+02 -1.9253382215e+02 -1.5859670270e+01  2.8547151869e+02  1.7005051603e+02  2.542438e-13 9.
       24     2     3     0     0     0 -1.5387151371e+01  7.7102427964e+01  1.4353186225e+02  1.8247706524e+02  8.0715147479e+01  1.233868e-13 9.
        5     1     3     0   101     0 -1.0812806296e+02  1.1543139418e+02  6.6504611952e+01  1.7164494800e+02  4.8000000000e+00 0. 9.
      -24     2     4     0     0     0  1.3540051148e+02 -9.8584331263e+01  1.4307442203e+01  1.8596844436e+02  7.9544896231e+01  4.128109e-14 9.
       -5     1     4     0     0   103 -1.1885297151e+01 -9.3949490883e+01 -3.0167112473e+01  9.9503074327e+01  4.8000000000e+00 0. 9.
      -13     1     5     0     0     0 -1.2410418382e+01  1.9231861324e+01 -4.6602584025e+00  2.3358342125e+01  1.0566000000e-01  2.645393e+05 9.
       14     1     5     0     0     0 -2.9767329891e+00  5.7870566640e+01  1.4819212065e+02  1.5911872311e+02  0.0000000000e+00 0. 9.
       13     1     7     0     0     0  5.1336882925e+00 -1.5306683085e+01 -2.1867417923e+01  2.7181692979e+01  1.0566000000e-01  1.925610e+06 9.
      -14     1     7     0     0     0  1.3026682319e+02 -8.3277648178e+01  3.6174860127e+01  1.5878675138e+02  0.0000000000e+00 0. 9.
#pdf   21   21  6.413618e-02  3.426283e-02  2.850306e+02  1.395997e+00  2.762619e+00
</event>
<event>
    12  9999  1.000000e+00  1.739156e+02  7.875146e-03  1.075597e-01
       21    -1     0     0   101   102  0.0000000000e+00  0.0000000000e+00  1.4908230110e+03  1.4908230110e+03  0.0000000000e+00 0. 9.
       21    -1     0     0   103   101  0.0000000000e+00  0.0000000000e+00 -3.7162835507e+01  3.7162835507e+01  0.0000000000e+00 0. 9.
        6     2     1     2   103     0 -2.8184212658e+01  1.3186482842e+01  2.0957445149e+02  2.7165243789e+02  1.7001577317e+02  2.039691e-13 9.
       -6     2     1     2     0   102  2.8184212658e+01 -1.3186482842e+01  1.2440857240e+03  1.2563334086e+03  1.7220949958e+02  4.200512e-13 9.
       24     2     3     0     0     0 -2.6081997942e+01 -1.4726413101e+01  1.6580065322e+02  2.1947260960e+02  1.4064576743e+02  3.565545e-14 9.
        5     1     3     0   103     0 -2.1022147160e+00  2.7912895943e+01  4.3773798263e+01  5.2179828296e+01  4.8000000000e+00 0. 9.
      -24     2     4     0     0     0  4.7700006063e+01  4.9207961458e+01  7.0702007333e+02  7.1528213008e+02  8.3990639132e+01  4.178923e-13 9.
       -5     1     4     0     0   102 -1.9515793405e+01 -6.2394444299e+01  5.3706565070e+02  5.4105127856e+02  4.8000000000e+00 0. 9.
      -11     1     5     0     0     0 -3.7292410932e+01  4.5149504451e+01  1.4283141022e+02  1.5436972958e+02  5.1100000000e-04 0. 9.
       12     1     5     0     0     0  1.1210412990e+01 -5.9875917552e+01  2.2969243001e+01  6.5102880014e+01  0.0000000000e+00 0. 9.
       13     1     7     0     0     0 -1.8097558334e+01  2.0549258094e+01  3.5302013855e+02  3.5408053182e+02  1.0566000000e-01  3.127509e+05 9.
      -14     1     7     0     0     0  6.5797564396e+01  2.8658703364e+01  3.5399993479e+02  3.6120159826e+02  0.0000000000e+00 0. 9.
#pdf   21   21  2.293574e-01  5.717359e-03  1.728398e+02  2.067163e-01  1.219333e+01
</event>
<event>
    12  9999  1.000000e+00  2.263470e+02  7.898912e-03  1.041710e-01
       -1    -1     0     0     0   101  0.0000000000e+00  0.0000000000e+00  5.8131841295e+01  5.8131841295e+01  0.0000000000e+00 0. 9.
        1    -1     0     0   102     0  0.0000000000e+00  0.0000000000e+00 -1.1216974785e+03  1.1216974785e+03  0.0000000000e+00 0. 9.
       -6     2     1     2     0   101 -8.8914976515e+01 -1.1871387088e+02 -2.5773219489e+02  3.4266797964e+02  1.7028389177e+02  1.730791e-14 9.
        6     2     1     2   102     0  8.8914976515e+01  1.1871387088e+02 -8.0583344230e+02  8.3716134015e+02  1.7167619671e+02  1.203737e-13 9.
      -24     2     3     0     0     0 -1.5298341074e+00 -1.2122612188e+01 -5.9582363748e+01  1.0124665679e+02  8.0941517915e+01  2.909411e-14 9.
       -5     1     3     0     0   101 -8.7385142408e+01 -1.0659125869e+02 -1.9814983114e+02  2.4142132285e+02  4.8000000000e+00 0. 9.
       24     2     4     0     0     0  1.6617304026e+01 -3.2336178571e+00 -3.6485777533e+02  3.7393275476e+02  8.0111907901e+01  4.276414e-15 9.
        5     1     4     0   102     0  7.2297672489e+01  1.2194748874e+02 -4.4097566698e+02  4.6322858539e+02  4.8000000000e+00 0. 9.
        3     1     5     0   103     0  1.4771474383e+01 -2.4633148674e+01 -7.1803062184e+01  7.7336396399e+01  5.0000000000e-01 0. 9.
       -2     1     5     0     0   103 -1.6301308490e+01  1.2510536486e+01  1.2220698436e+01  2.3910260390e+01  3.3000000000e-01 0. 9.
       -1     1     7     0     0   104  3.1087793629e+01  2.3618337130e+01 -1.0044763348e+02  1.0776879295e+02  3.3000000000e-01 0. 9.
        2     1     7     0   104     0 -1.4470489604e+01 -2.6851954987e+01 -2.6441014184e+02  2.6616396181e+02  3.3000000000e-01 0. 9.
#pdf   -1    1  8.943360e-03  1.725688e-01  2.258217e+02  5.834767e-01  2.504953e-01
</event>
<event>
    12  9999  1.000000e+00  1.816727e+02  7.879072e-03  1.069831e-01
       -1    -1     0     0     0   101  0.0000000000e+00  0.0000000000e+00  5.5468389037e+01  5.5468389037e+01  0.0000000000e+00 0. 9.
        1    -1     0     0   102     0  0.0000000000e+00  0.0000000000e+00 -6.8764598995e+02  6.8764598995e+02  0.0000000000e+00 0. 9.
       -6     2     1     2     0   101  1.7183071666e+01 -5.4427670352e+01 -4.5048146338e+02  4.8525458735e+02  1.7111644119e+02  8.299766e-14 9.
        6     2     1     2   102     0 -1.7183071666e+01  5.4427670352e+01 -1.8169613753e+02  2.5785979163e+02  1.7384060658e+02  5.697533e-13 9.
      -24     2     3     0     0     0  1.7942938660e+01 -8.8207504680e+01 -2.1042576176e+02  2.4278513673e+02  8.1013014230e+01  8.189872e-14 9.
       -5     1     3     0     0   101 -7.5986699392e-01  3.3779834328e+01 -2.4005570162e+02  2.4246945062e+02  4.8000000000e+00 0. 9.
       24     2     4     0     0     0 -1.0823764695e+01  3.6259545468e+01 -2.0703884970e+02  2.2567571783e+02  8.1440381957e+01  1.653416e-13 9.
        5     1     4     0   102     0 -6.3593069716e+00  1.8168124885e+01  2.5342712164e+01  3.2184073807e+01  4.8000000000e+00 0. 9.
       13     1     5     0     0     0  4.4107157674e+01 -8.2697491058e+01 -1.5272972293e+02  1.7919457530e+02  1.0566000000e-01  7.163297e+05 9.
      -14     1     5     0     0     0 -2.6164219013e+01 -5.5100136220e+00 -5.7696038826e+01  6.3590561429e+01  0.0000000000e+00 0. 9.
       -3     1     7     0     0   103  2.4877224573e+01  3.6815226487e+01 -6.1873494029e+01  7.6176219826e+01  5.0000000000e-01 0. 9.
        4     1     7     0   103     0 -3.5700989268e+01 -5.5568101936e-01 -1.4516535567e+02  1.4949949800e+02  1.5000000000e+00 0. 9.
#pdf   -1    1  8.533598e-03  1.057917e-01  1.803842e+02  5.903858e-01  3.417355e-01
</event>
<event>
    12  9999  1.000000e+00  1.969407e+02  7.886342e-03  1.059333e-01
       21    -1     0     0   101   102  0.0000000000e+00  0.0000000000e+00  2.3146338264e+01  2.3146338264e+01  0.0000000000e+00 0. 9.
       21    -1     0     0   102   103  0.0000000000e+00  0.0000000000e+00 -1.8801910898e+03  1.8801910898e+03  0.0000000000e+00 0. 9.
        6     2     1     2   101     0 -9.2503136178e+01  3.5289224921e+01 -6.1622223168e+02  6.4704146223e+02  1.7067705011e+02  6.836284e-14 9.
       -6     2     1     2     0   103  9.2503136178e+01 -3.5289224921e+01 -1.2408225199e+03  1.2562959659e+03  1.6981421725e+02  8.376598e-14 9.
       24     2     3     0     0     0 -1.0133119783e+02  2.6421519524e+01 -2.7369287425e+02  3.0425002188e+02  8.1817956809e+01  4.719321e-14 9.
        5     1     3     0   101     0  8.8280616545e+00  8.8677053972e+00 -3.4252935743e+02  3.4279144035e+02  4.8000000000e+00 0. 9.
      -24     2     4     0     0     0  4.6463644949e+01 -8.3599470691e+01 -9.3165347374e+02  9.3997009956e+02  8.0111491829e+01  1.753001e-13 9.
       -5     1     4     0     0   103  4.6039491229e+01  4.8310245769e+01 -3.0916904616e+02  3.1632586632e+02  4.8000000000e+00 0. 9.
      -15     1     5     0     0     0 -9.5983463309e+01  4.6901361341e+01 -2.5306035972e+02  2.7469121878e+02  1.7768200000e+00  4.688252e-02 9.
       16     1     5     0     0     0 -5.3477345239e+00 -2.0479841817e+01 -2.0632514530e+01  2.9558803108e+01  0.0000000000e+00 0. 9.
        1     1     7     0   104     0 -1.0758486039e+01 -6.2819486574e+01 -4.5360345952e+02  4.5805921048e+02  3.3000000000e-01 0. 9.
       -2     1     7     0     0   104  5.7222130989e+01 -2.0779984116e+01 -4.7805001422e+02  4.8191088908e+02  3.3000000000e-01 0. 9.
#pdf   21   21  3.560975e-03  2.892602e-01  1.965681e+02  1.696583e+01  1.132850e-01
</event>
<event>
    12  9999  1.000000e+00  1.856624e+02  7.881027e-03  1.066984e-01
       21    -1     0     0   101   102  0.0000000000e+00  0.0000000000e+00  4.7135330414e+01  4.7135330414e+01  0.0000000000e+00 0. 9.
       21    -1     0     0   103   101  0.0000000000e+00  0.0000000000e+00 -9.9816809714e+02  9.9816809714e+02  0.0000000000e+00 0. 9.
        6     2     1     2   103     0 -6.6567680924e+01  2.9644134569e+01 -7.4562931134e+02  7.6838033739e+02  1.7069048629e+02  1.022549e-13 9.
       -6     2     1     2     0   102  6.6567680924e+01 -2.9644134569e+01 -2.0540345539e+02  2.7692309016e+02  1.7083848372e+02  3.709383e-14 9.
       24     2     3     0     0     0 -2.3857861164e+01  1.7173477046e+01 -6.9706775045e+02  7.0234314182e+02  8.0736078038e+01  5.581782e-14 9.
        5     1     3     0   103     0 -4.2709819761e+01  1.2470657523e+01 -4.8561560891e+01  6.6037195573e+01  4.8000000000e+00 0. 9.
      -24     2     4     0     0     0  8.4708168764e+01 -5.7188743161e+01 -2.0616763280e+02  2.4358532286e+02  7.9891742381e+01  9.474190e-14 9.
       -5     1     4     0     0   102 -1.8140487839e+01  2.7544608592e+01  7.6417740632e-01  3.3337767301e+01  4.8000000000e+00 0. 9.
      -13     1     5     0     0     0 -3.7386756917e+01 -2.2748106103e+01 -3.5915216667e+02  3.6180870072e+02  1.0566000000e-01  3.311633e+05 9.
       14     1     5     0     0     0  1.3528895753e+01  3.9921583148e+01 -3.3791558377e+02  3.4053444110e+02  0.0000000000e+00 0. 9.
       11     1     7     0     0     0  5.8606896445e+01  4.2414947526e-01 -1.4136160418e+02  1.5302957672e+02  5.1100000000e-04 0. 9.
      -12     1     7     0     0     0  2.6101272319e+01 -5.7612892636e+01 -6.4806028617e+01  9.0555746144e+01  0.0000000000e+00 0. 9.
#pdf   21   21  7.251589e-03  1.535643e-01  1.855944e+02  1.030974e+01  4.337114e-01
</event>
<event>
    12  9999  1.000000e+00  2.105666e+02  7.892380e-03  1.050787e-01
       21    -1     0     0   101   102  0.0000000000e+00  0.0000000000e+00  2.9530222422e+02  2.9530222422e+02  0.0000000000e+00 0. 9.
       21    -1     0     0   102   103  0.0000000000e+00  0.0000000000e+00 -1.7335374158e+02  1.7335374158e+02  0.0000000000e+00 0. 9.
        6     2     1     2   101     0  1.1588042132e+02 -3.7762811455e+01  1.4719839749e+02  2.5860975257e+02  1.7423356142e+02  1.028862e-14 9.
       -6     2     1     2     0   103 -1.1588042132e+02  3.7762811455e+01 -2.5249914846e+01  2.1004621323e+02  1.6919678342e+02  2.313002e-14 9.
       24     2     3     0     0     0  1.0423380225e+02  1.6783084126e+01  1.5252406012e+02  2.0237541125e+02  8.0906493680e+01  2.058370e-13 9.
        5     1     3     0   101     0  1.1646619073e+01 -5.4545895581e+01 -5.3256626320e+00  5.6234341314e+01  4.8000000000e+00 0. 9.
      -24     2     4     0     0     0 -1.3929368527e+02  1.8539687995e+01  1.1592512132e+01  1.6210756672e+02  7.9987661945e+01  3.159578e-14 9.
       -5     1     4     0     0   103  2.3413263946e+01  1.9223123460e+01 -3.6842426979e+01  4.7938646516e+01  4.8000000000e+00 0. 9.
      -11     1     5     0     0     0 -1.0275139583e+01 -3.5422317922e+00  3.8311526034e-01  1.0875324229e+01  5.1100000000e-04 0. 9.
       12     1     5     0     0     0  1.1450894183e+02  2.0325315918e+01  1.5214094486e+02  1.9150008702e+02  0.0000000000e+00 0. 9.
       15     1     7     0     0     0 -4.0804280090e+01 -2.7590445094e+01  1.9629480097e+01  5.3053704040e+01  1.7768200000e+00  4.459404e-02 9.
      -16     1     7     0     0     0 -9.8489405176e+01  4.6130133089e+01 -8.0369679649e+00  1.0905386268e+02  0.0000000000e+00 0. 9.
#pdf   21   21  4.543111e-02  2.666981e-02  2.085230e+02  2.101346e+00  3.559972e+00
</event>
<event>
    12  9999  1.000000e+00  1.930718e+02  7.884553e-03  1.061895e-01
       21    -1     0     0   101   102  0.0000000000e+00  0.0000000000e+00  2.9660929712e+02  2.9660929712e+02  0.0000000000e+00 0. 9.
       21    -1     0     0   103   101  0.0000000000e+00  0.0000000000e+00 -1.4930844571e+02  1.4930844571e+02  0.0000000000e+00 0. 9.
        6     2     1     2   103     0  3.0524170152e+01  8.5280263140e+01 -1.5142769142e+01  1.9338133732e+02  1.7018398844e+02  1.553127e-13 9.
       -6     2     1     2     0   102 -3.0524170152e+01 -8.5280263140e+01  1.6244362055e+02  2.5253640552e+02  1.7082815345e+02  1.970416e-14 9.
       24     2     3     0     0     0  3.2522525097e+01  7.8878700870e+01  4.9360729689e+01  1.2835276834e+02  8.2209411964e+01  1.835689e-13 9.
        5     1     3     0   103     0 -1.9983549450e+00  6.4015622697e+00 -6.4503498832e+01  6.5028568979e+01  4.8000000000e+00 0. 9.
      -24     2     4     0     0     0 -4.7595255916e+01 -6.6513641694e+01  1.8527323698e+02  2.1807135893e+02  8.0867622246e+01  1.585356e-14 9.
       -5     1     4     0     0   102  1.7071085764e+01 -1.8766621446e+01 -2.2829616432e+01  3.4465046585e+01  4.8000000000e+00 0. 9.
       -1     1     5     0     0   104  6.5491469185e+00  7.1150673692e+01 -6.6796553723e-01  7.1455334091e+01  3.3000000000e-01 0. 9.
        2     1     5     0   104     0  2.5973378178e+01  7.7280271788e+00  5.0028695227e+01  5.6897434249e+01  3.3000000000e-01 0. 9.
        3     1     7     0   105     0 -3.1886844021e+01 -4.2109733446e+01  3.1342863707e+01  6.1421702825e+01  5.0000000000e-01 0. 9.
       -4     1     7     0     0   105 -1.5708411894e+01 -2.4403908248e+01  1.5393037327e+02  1.5664965611e+02  1.5000000000e+00 0. 9.
#pdf   21   21  4.563220e-02  2.297053e-02  1.927875e+02  2.101216e+00  4.086915e+00
</event>
<event>
    12  9999  1.000000e+00  2.363733e+02  7.902836e-03  1.036342e-01
       21    -1     0     0   101   102  0.0000000000e+00  0.0000000000e+00  1.5590947127e+03  1.5590947127e+03  0.0000000000e+00 0. 9.
       21    -1     0     0   102   103  0.0000000000e+00  0.0000000000e+00 -4.2242575133e+01  4.2242575133e+01  0.0000000000e+00 0. 9.
        6     2     1     2   101     0 -1.5732768122e+02 -4.3191827512e+01  1.0704782476e+03  1.0962845162e+03  1.7116812959e+02  2.268514e-13 9.
       -6     2     1     2     0   103  1.5732768122e+02  4.3191827512e+01  4.4637388998e+02  5.0505277167e+02  1.7091260712e+02  5.716103e-14 9.
       24     2     3     0     0     0 -2.0313372219e+01  7.5992578044e+00  5.1557129722e+02  5.2244009580e+02  8.1605817035e+01  1.280195e-13 9.
        5     1     3     0   101     0 -1.3701430900e+02 -5.0791085317e+01  5.5490695041e+02  5.7384442040e+02  4.8000000000e+00 0. 9.
      -24     2     4     0     0     0  1.1327535960e+02 -1.9498800934e+01  3.7209441165e+02  3.9822953994e+02  8.3192577625e+01  8.934647e-14 9.
       -5     1     4     0     0   103  4.4052321620e+01  6.2690628446e+01  7.4279478329e+01  1.0682323172e+02  4.8000000000e+00 0. 9.
      -13     1     5     0     0     0 -3.9369100050e+01  2.8547596798e+01  2.0989812331e+02  2.1545794173e+02  1.0566000000e-01  3.691326e+05 9.
       14     1     5     0     0     0  1.9055727832e+01 -2.0948338994e+01  3.0567317391e+02  3.0698215407e+02  0.0000000000e+00 0. 9.
       13     1     7     0     0     0  2.5025765111e+01  2.3364020026e+01  1.7203872534e+02  1.7541237281e+02  1.0566000000e-01  3.305422e+05 9.
      -14     1     7     0     0     0  8.8249594488e+01 -4.2862820960e+01  2.0005568631e+02  2.2281716714e+02  0.0000000000e+00 0. 9.
#pdf   21   21  2.398607e-01  6.498858e-03  2.362809e+02  1.756140e-01  1.123211e+01
</event>
<event>
    12  9999  1.000000e+00  1.785242e+02  7.877498e-03  1.072133e-01
       21    -1     0     0   101   102  0.0000000000e+00  0.0000000000e+00  2.1812327798e+03  2.1812327798e+03  0.0000000000e+00 0. 9.
       21    -1     0     0   103   101  0.0000000000e+00  0.0000000000e+00 -2.5588507339e+01  2.5588507339e+01  0.0000000000e+00 0. 9.
        6     2     1     2   103     0  1.5420988891e+01  4.7077103140e+01  3.5797299412e+02  4.0038820111e+02  1.7237165232e+02  5.294602e-14 9.
       -6     2     1     2     0   102 -1.5420988891e+01 -4.7077103140e+01  1.7976712783e+03  1.8064330860e+03  1.7065874961e+02  1.159204e-13 9.
       24     2     3     0     0     0  7.1003334232e+01  4.5655001408e+01  1.8784142947e+02  2.2133734582e+02  8.1116985913e+01  2.147826e-14 9.
        5     1     3     0   103     0 -5.5582345341e+01  1.4221017322e+00  1.7013156465e+02  1.7905085529e+02  4.8000000000e+00 0. 9.
      -24     2     4     0     0     0  2.1519732791e+01  3.2130018502e+01  8.1076472394e+02  8.1565259968e+02  8.0338588370e+01  1.928846e-13 9.
       -5     1     4     0     0   102 -3.6940721683e+01 -7.9207121641e+01  9.8690655435e+02  9.9078048631e+02  4.8000000000e+00 0. 9.
       -3     1     5     0     0   104  2.1742519919e+01 -1.7951341221e+01  1.8153407753e+01  3.3537800124e+01  5.0000000000e-01 0. 9.
        4     1     5     0   104     0  4.9260814312e+01  6.3606342629e+01  1.6968802172e+02  1.8779954570e+02  1.5000000000e+00 0. 9.
       11     1     7     0     0     0  3.8403850377e+01 -1.1206360406e+01  2.7832722710e+02  2.8118763057e+02  5.1100000000e-04 0. 9.
      -12     1     7     0     0     0 -1.6884117586e+01  4.3336378908e+01  5.3243749684e+02  5.3446496911e+02  0.0000000000e+00 0. 9.
#pdf   21   21  3.355743e-01  3.936693e-03  1.777033e+02  7.291895e-02  1.577935e+01
</event>
<event>
    12  9999  1.000000e+00  1.791084e+02  7.877792e-03  1.071703e-01
       21    -1     0     0   101   102  0.0000000000e+00  0.0000000000e+00  1.0940400386e+02  1.0940400386e+02  0.0000000000e+00 0. 9.
       21    -1     0     0   103   101  0.0000000000e+00  0.0000000000e+00 -4.4317038576e+02  4.4317038576e+02  0.0000000000e+00 0. 9.
        6     2     1     2   103     0 -1.0271527809e+01  5.4191574549e+01 -3.2770063050e+02  3.7353692978e+02  1.7058693865e+02  1.935599e-13 9.
       -6     2     1     2     0   102  1.0271527809e+01 -5.4191574549e+01 -6.0657514041e+00  1.7903745984e+02  1.7022158398e+02  2.654558e-13 9.
       24     2     3     0     0     0 -3.6710863477e+01 -1.8715350560e+01 -1.1907667433e+02  1.5091291200e+02  8.3051193827e+01  2.873976e-15 9.
        5     1     3     0   103     0  2.6439335668e+01  7.2906925109e+01 -2.0862395618e+02  2.2262401778e+02  4.8000000000e+00 0. 9.
      -24     2     4     0     0     0 -4.0422733781e+01 -2.7186464996e+01 -4.9982422624e+01  1.0657437882e+02  8.0540389647e+01  1.229934e-13 9.
       -5     1     4     0     0   102  5.0694261590e+01 -2.7005109552e+01  4.3916671220e+01  7.2463081022e+01  4.8000000000e+00 0. 9.
       -1     1     5     0     0   104  2.4317406677e+01 -5.5915801527e+00 -1.3788251008e+01  2.8510117537e+01  3.3000000000e-01 0. 9.
        2     1     5     0   104     0 -6.1028270154e+01 -1.3123770407e+01 -1.0528842332e+02  1.2240279446e+02  3.3000000000e-01 0. 9.
        1     1     7     0   105     0 -3.4290629603e+01 -3.1877118773e+01 -7.0510822792e+01  8.4639724779e+01  3.3000000000e-01 0. 9.
       -2     1     7     0     0   105 -6.1321041780e+00  4.6906537762e+00  2.0528400168e+01  2.1934654042e+01  3.3000000000e-01 0. 9.
#pdf   21   21  1.683139e-02  6.818006e-02  1.789347e+02  5.351435e+00  1.346473e+00
</event>
<event>
    12  9999  1.000000e+00  1.948229e+02  7.885367e-03  1.060727e-01
       21    -1     0     0   101   102  0.0000000000e+00  0.0000000000e+00  1.2204703291e+03  1.2204703291e+03  0.0000000000e+00 0. 9.
       21    -1     0     0   102   103  0.0000000000e+00  0.0000000000e+00 -3.7793846201e+01  3.7793846201e+01  0.0000000000e+00 0. 9.
        6     2     1     2   101     0  2.7602215977e+01 -9.2549752819e+01  8.5105565730e+02  8.7262909422e+02  1.6690855336e+02  1.024573e-13 9.
       -6     2     1     2     0   103 -2.7602215977e+01  9.2549752819e+01  3.3162082559e+02  3.8563508107e+02  1.7150715645e+02  1.602112e-13 9.
       24     2     3     0     0     0  4.5709746571e+00  3.7936695681e+00  2.1558991634e+02  2.2947107238e+02  7.8375221193e+01  3.581363e-14 9.
        5     1     3     0   101     0  2.3031241320e+01 -9.6343422387e+01  6.3546574096e+02  6.4315802183e+02  4.8000000000e+00 0. 9.
      -24     2     4     0     0     0 -1.6243285020e+01  2.0181113575e+01  5.9927673898e+01  1.0419866919e+02  8.1209081438e+01  2.837629e-15 9.
       -5     1     4     0     0   103 -1.1358930956e+01  7.2368639244e+01  2.7169315169e+02  2.8143641189e+02  4.8000000000e+00 0. 9.
       -1     1     5     0     0   104 -3.3771750940e+01 -1.1616963341e+01  7.7570450790e+01  8.5397709188e+01  3.3000000000e-01 0. 9.
        2     1     5     0   104     0  3.8342725597e+01  1.5410632909e+01  1.3801946554e+02  1.4407336319e+02  3.3000000000e-01 0. 9.
       11     1     7     0     0     0 -2.7969618038e+01  4.5814924787e+01  2.4718940452e+01  5.9095963346e+01  5.1100000000e-04 0. 9.
      -12     1     7     0     0     0  1.1726333018e+01 -2.5633811212e+01  3.5208733446e+01  4.5102705841e+01  0.0000000000e+00 0. 9.
#pdf   21   21  1.877647e-01  5.814438e-03  1.928362e+02  3.029684e-01  1.209842e+01
</event>
<event>
    12  9999  1.000000e+00  1.926917e+02  7.884376e-03  1.062150e-01
       21    -1     0     0   101   102  0.0000000000e+00  0.0000000000e+00  1.3322314831e+02  1.3322314831e+02  0.0000000000e+00 0. 9.
       21    -1     0     0   102   103  0.0000000000e+00  0.0000000000e+00 -2.9140984780e+02  2.9140984780e+02  0.0000000000e+00 0. 9.
        6     2     1     2   101     0  8.2970460971e+01 -3.1597143166e+01 -1.2354605261e+02  2.2916244699e+02  1.7137480312e+02  1.331441e-13 9.
       -6     2     1     2     0   103 -8.2970460971e+01  3.1597143166e+01 -3.4640646872e+01  1.9547054912e+02  1.7066424438e+02  6.567386e-14 9.
       24     2     3     0     0     0  1.5849576448e+01 -4.1069600222e+01 -1.3068189212e+02  1.6083309175e+02  8.2774424422e+01  1.603667e-13 9.
        5     1     3     0   101     0  6.7120884524e+01  9.4724570557e+00  7.1358395051e+00  6.8329355239e+01  4.8000000000e+00 0. 9.
      -24     2     4     0     0     0 -1.1896729260e+02  3.2749177327e+01 -5.0892352030e+01  1.5566782321e+02  8.0104396655e+01  1.858400e-13 9.
       -5     1     4     0     0   103  3.5996831626e+01 -1.1520341611e+00  1.6251705158e+01  3.9802725917e+01  4.8000000000e+00 0. 9.
       -1     1     5     0     0   104  3.0141662182e+01 -1.0681400702e+01 -1.2203373543e+02  1.2615448309e+02  3.3000000000e-01 0. 9.
        2     1     5     0   104     0 -1.4292085734e+01 -3.0388199519e+01 -8.6481566880e+00  3.4678608662e+01  3.3000000000e-01 0. 9.
       15     1     7     0     0     0 -2.7515440550e+01  1.5108070137e+01 -5.3991209481e+01  6.2478484636e+01  1.7768200000e+00  7.411380e-02 9.
      -16     1     7     0     0     0 -9.1451852047e+01  1.7641107190e+01  3.0988574509e+00  9.3189338571e+01  0.0000000000e+00 0. 9.
#pdf   21   21  2.049587e-02  4.483228e-02  1.923766e+02  4.519579e+00  2.141050e+00
</event>
<event>
    12  9999  1.000000e+00  1.736278e+02  7.874997e-03  1.075817e-01
       21    -1     0     0   101   102  0.0000000000e+00  0.0000000000e+00  2.1971818709e+02  2.1971818709e+02  0.0000000000e+00 0. 9.
       21    -1     0     0   102   103  0.0000000000e+00  0.0000000000e+00 -4.9900011702e+02  4.9900011702e+02  0.0000000000e+00 0. 9.
        6     2     1     2   101     0  4.3895796830e+00 -2.9010871948e+01  1.6649532656e+02  2.4007997810e+02  1.7046056148e+02  3.193399e-14 9.
       -6     2     1     2     0   103 -4.3895796830e+00  2.9010871948e+01 -4.4577725648e+02  4.7863832601e+02  1.7180333415e+02  2.882835e-15 9.
       24     2     3     0     0     0  2.4153107873e+01 -6.1308520376e+01  4.6930153336e+01  1.1457059285e+02  8.1128750530e+01  1.249818e-13 9.
        5     1     3     0   101     0 -1.9763528190e+01  3.2297648428e+01  1.1956517322e+02  1.2550938526e+02  4.8000000000e+00 0. 9.
      -24     2     4     0     0     0 -2.1647797059e+01 -1.5492213833e+01 -1.0482528178e+02  1.3432791408e+02  7.9668142898e+01  3.507499e-14 9.
       -5     1     4     0     0   103  1.7258217376e+01  4.4503085781e+01 -3.4095197470e+02  3.4431041193e+02  4.8000000000e+00 0. 9.
       -3     1     5     0     0   104  4.9068071225e+01 -2.6413877538e+01  4.4993420205e+01  7.1624202628e+01  5.0000000000e-01 0. 9.
        4     1     5     0   104     0 -2.4914963352e+01 -3.4894642838e+01  1.9367331310e+00  4.2946390219e+01  1.5000000000e+00 0. 9.
        3     1     7     0   105     0  2.9362532910e+01 -6.9879807181e+00 -2.4958595212e+01  3.9168503780e+01  5.0000000000e-01 0. 9.
       -4     1     7     0     0   105 -5.1010329969e+01 -8.5042331153e+00 -7.9866686572e+01  9.5159410299e+01  1.5000000000e+00 0. 9.
#pdf   21   21  3.380280e-02  7.676925e-02  1.729673e+02  2.862353e+00  1.169195e+00
</event>
<event>
    12  9999  1.000000e+00  6.237948e+02  7.991704e-03  9.292938e-02
       21    -1     0     0   101   102  0.0000000000e+00  0.0000000000e+00  1.4816539655e+03  1.4816539655e+03  0.0000000000e+00 0. 9.
       21    -1     0     0   102   103  0.0000000000e+00  0.0000000000e+00 -7.0674904310e+02  7.0674904310e+02  0.0000000000e+00 0. 9.
        6     2     1     2   101     0 -5.9841287096e+02  4.2606307374e+01  1.2547586869e+03  1.4010937750e+03  1.6950263206e+02  5.082843e-14 9.
       -6     2     1     2     0   103  5.9841287096e+02 -4.2606307374e+01 -4.7985376450e+02  7.8730923366e+02  1.7228735454e+02  9.657373e-14 9.
       24     2     3     0     0     0 -4.3317564295e+02 -2.9348247304e+01  8.4417997571e+02  9.5267575842e+02  8.0304495693e+01  1.206621e-14 9.
        5     1     3     0   101     0 -1.6523722802e+02  7.1954554677e+01  4.1057871124e+02  4.4841801657e+02  4.8000000000e+00 0. 9.
      -24     2     4     0     0     0  4.5811036374e+02  2.7363702224e+01 -3.3569740975e+02  5.7427240494e+02  8.0511903429e+01  5.543497e-15 9.
       -5     1     4     0     0   103  1.4030250722e+02 -6.9970009598e+01 -1.4415635475e+02  2.1303682872e+02  4.8000000000e+00 0. 9.
       -1     1     5     0     0   104 -1.2199612070e+02 -3.8065623057e+01  2.0220622579e+02  2.3920600279e+02  3.3000000000e-01 0. 9.
        2     1     5     0   104     0 -3.1117952225e+02  8.7173757531e+00  6.4197374992e+02  7.1346975562e+02  3.3000000000e-01 0. 9.
       11     1     7     0     0     0  9.2997022044e+01  2.8626591067e+01 -4.3285641176e+01  1.0649682886e+02  5.1100000000e-04 0. 9.
      -12     1     7     0     0     0  3.6511334170e+02 -1.2628888430e+00 -2.9241176857e+02  4.6777557608e+02  0.0000000000e+00 0. 9.
#pdf   21   21  2.279468e-01  1.087306e-01  6.234135e+02  1.649239e-01  6.437878e-01
</event>
<event>
    12  9999  1.000000e+00  1.993646e+02  7.887445e-03  1.057760e-01
       21    -1     0     0   101   102  0.0000000000e+00  0.0000000000e+00  2.3674786699e+03  2.3674786699e+03  0.0000000000e+00 0. 9.
       21    -1     0     0   102   103  0.0000000000e+00  0.0000000000e+00 -2.3902895346e+01  2.3902895346e+01  0.0000000000e+00 0. 9.
        6     2     1     2   101     0  1.0181833608e+02  9.6025874909e+00  1.8253785075e+03  1.8362667288e+03  1.7149233292e+02  1.872375e-16 9.
       -6     2     1     2     0   103 -1.0181833608e+02 -9.6025874909e+00  5.1819726704e+02  5.5511483648e+02  1.7077731365e+02  2.958228e-13 9.
       24     2     3     0     0     0  5.7754500948e+01 -1.2195822504e+01  4.9805015237e+02  5.0801961524e+02  8.0905220617e+01  9.084965e-15 9.
        5     1     3     0   101     0  4.4063835128e+01  2.1798409995e+01  1.3273283551e+03  1.3282471135e+03  4.8000000000e+00 0. 9.
      -24     2     4     0     0     0 -1.0562501316e+02 -7.6973144651e+00  5.2748782688e+02  5.4382433791e+02  7.9281844920e+01  9.650105e-14 9.
       -5     1     4     0     0   103  3.8066770868e+00 -1.9052730258e+00 -9.2905598423e+00  1.1290498569e+01  4.8000000000e+00 0. 9.
       -1     1     5     0     0   104  4.4560386037e+01 -2.5801218202e+01  4.7668446517e+02  4.7945752586e+02  3.3000000000e-01 0. 9.
        2     1     5     0   104     0  1.3194114911e+01  1.3605395698e+01  2.1365687203e+01  2.8562089385e+01  3.3000000000e-01 0. 9.
        1     1     7     0   105     0 -7.1067333561e+01  3.3242199359e+01  2.9655431000e+02  3.0675752216e+02  3.3000000000e-01 0. 9.
       -2     1     7     0     0   105 -3.4557679602e+01 -4.0939513824e+01  2.3093351688e+02  2.3706681575e+02  3.3000000000e-01 0. 9.
#pdf   21   21  3.642275e-01  3.677369e-03  1.990580e+02  5.191564e-02  1.661470e+01
</event>
<event>
    12  9999  1.000000e+00  2.394893e+02  7.904022e-03  1.034732e-01
        1    -1     0     0   101     0  0.0000000000e+00  0.0000000000e+00  1.2701654910e+03  1.2701654910e+03  0.0000000000e+00 0. 9.
       -1    -1     0     0     0   102  0.0000000000e+00  0.0000000000e+00 -4.7743732965e+01  4.7743732965e+01  0.0000000000e+00 0. 9.
        6     2     1     2   101     0 -7.6665439212e+01 -1.4582029370e+02  4.6168424862e+02  5.2083894005e+02  1.7601053500e+02  2.153233e-13 9.
       -6     2     1     2     0   102  7.6665439212e+01  1.4582029370e+02  7.6073750946e+02  7.9707028395e+02  1.7163429623e+02  1.615001e-13 9.
       24     2     3     0     0     0  2.6706797755e+01 -6.7535818982e+01  1.7415530522e+02  2.0538654800e+02  8.1112415037e+01  1.342069e-13 9.
        5     1     3     0   101     0 -1.0337223697e+02 -7.8284474716e+01  2.8752894340e+02  3.1545239205e+02  4.8000000000e+00 0. 9.
      -24     2     4     0     0     0  2.3393858486e+01  1.3638465911e+02  6.9023641150e+02  7.0807400692e+02  7.6121269408e+01  5.962046e-14 9.
       -5     1     4     0     0   102  5.3271580726e+01  9.4356345861e+00  7.0501097957e+01  8.8996277036e+01  4.8000000000e+00 0. 9.
       -1     1     5     0     0   103 -3.4812332984e+00  1.3236759483e+01  3.4202349213e+00  1.4111615563e+01  3.3000000000e-01 0. 9.
        2     1     5     0   103     0  3.0188031054e+01 -8.0772578464e+01  1.7073507029e+02  1.9127493244e+02  3.3000000000e-01 0. 9.
        1     1     7     0   104     0 -9.4639778027e+00  4.3732203161e+01  9.7974556763e+01  1.0770884431e+02  3.3000000000e-01 0. 9.
       -2     1     7     0     0   104  3.2857836289e+01  9.2652455949e+01  5.9226185474e+02  6.0036516261e+02  3.3000000000e-01 0. 9.
#pdf    1   -1  1.954101e-01  7.345190e-03  2.379065e+02  2.225519e-01  6.495536e-01
</event>
<event>
    12  9999  1.000000e+00  1.765781e+02  7.876512e-03  1.073582e-01
       21    -1     0     0   101   102  0.0000000000e+00  0.0000000000e+00  1.3095749720e+03  1.3095749720e+03  0.0000000000e+00 0. 9.
       21    -1     0     0   102   103  0.0000000000e+00  0.0000000000e+00 -1.7390463298e+02  1.7390463298e+02  0.0000000000e+00 0. 9.
        6     2     1     2   101     0 -1.1958967362e+01  4.0948514254e+01  1.2569877436e+03  1.2693476029e+03  1.7147988687e+02  6.204785e-14 9.
       -6     2     1     2     0   103  1.1958967362e+01 -4.0948514254e+01 -1.2131740464e+02  2.1413200206e+02  1.7121566492e+02  7.865660e-14 9.
       24     2     3     0     0     0 -4.6947310224e+01 -2.6406443508e+01  8.2579858951e+02  8.3150288030e+02  8.0946768353e+01  2.800028e-13 9.
        5     1     3     0   101     0  3.4988342862e+01  6.7354957762e+01  4.3118915413e+02  4.3784472261e+02  4.8000000000e+00 0. 9.
      -24     2     4     0     0     0  2.9471334894e+01  3.6318836905e+01 -6.2920970460e+01  1.1559211116e+02  8.4940391715e+01  5.107090e-14 9.
       -5     1     4     0     0   103 -1.7512367532e+01 -7.7267351159e+01 -5.8396434185e+01  9.8539890893e+01  4.8000000000e+00 0. 9.
       -1     1     5     0     0   104  1.8973661475e+01 -2.4431455872e+00  7.3790102375e+01  7.6230288591e+01  3.3000000000e-01 0. 9.
        2     1     5     0   104     0 -6.5920971699e+01 -2.3963297921e+01  7.5200848714e+02  7.5527259171e+02  3.3000000000e-01 0. 9.
       11     1     7     0     0     0  2.7819329787e+01 -1.2198014556e+01  6.3223243476e+00  3.1027060033e+01  5.1100000000e-04 0. 9.
      -12     1     7     0     0     0  1.6520051074e+00  4.8516851461e+01 -6.9243294808e+01  8.4565051129e+01  0.0000000000e+00 0. 9.
#pdf   21   21  2.014731e-01  2.675456e-02  1.764500e+02  2.688090e-01  3.567835e+00
</event>
<event>
    12  9999  1.000000e+00  1.709684e+02  7.873609e-03  1.077875e-01
       21    -1     0     0   101   102  0.0000000000e+00  0.0000000000e+00  5.0706806077e+01  5.0706806077e+01  0.0000000000e+00 0. 9.
       21    -1     0     0   102   103  0.0000000000e+00  0.0000000000e+00 -6.0930473778e+02  6.0930473778e+02  0.0000000000e+00 0. 9.
        6     2     1     2   101     0 -1.3153353236e+00 -5.6620447723e+00 -2.0093304279e+02  2.6308674409e+02  1.6972553836e+02  1.734987e-13 9.
       -6     2     1     2     0   103  1.3153353236e+00  5.6620447723e+00 -3.5766488892e+02  3.9692479977e+02  1.7202132151e+02  2.640605e-16 9.
       24     2     3     0     0     0 -5.0350392202e+01  6.2161331739e+00 -1.8819789324e+02  2.1083014691e+02  8.0356091988e+01  3.042524e-13 9.
        5     1     3     0   101     0  4.9035056879e+01 -1.1878177946e+01 -1.2735149548e+01  5.2256597176e+01  4.8000000000e+00 0. 9.
      -24     2     4     0     0     0  4.5685888327e+01 -4.2551432461e+01 -2.6495903338e+02  2.8329953405e+02  7.8469814736e+01  2.661763e-14 9.
       -5     1     4     0     0   103 -4.4370553003e+01  4.8213477233e+01 -9.2705855536e+01  1.1362526573e+02  4.8000000000e+00 0. 9.
       -1     1     5     0     0   104 -9.3377884837e+00 -2.7178851565e+01 -2.1357152820e+01  3.5806719240e+01  3.3000000000e-01 0. 9.
        2     1     5     0   104     0 -4.1012603719e+01  3.3394984739e+01 -1.6684074042e+02  1.7502342767e+02  3.3000000000e-01 0. 9.
       11     1     7     0     0     0  3.2364584000e+01 -7.6761500727e+00 -2.2920928547e+02  2.3161020298e+02  5.1100000000e-04 0. 9.
      -12     1     7     0     0     0  1.3321304326e+01 -3.4875282388e+01 -3.5749747907e+01  5.1689331066e+01  0.0000000000e+00 0. 9.
#pdf   21   21  7.801047e-03  9.373919e-02  1.698250e+02  9.749401e+00  9.070256e-01
</event>
<event>
    12  9999  1.000000e+00  1.876019e+02  7.881963e-03  1.065628e-01
       21    -1     0     0   101   102  0.0000000000e+00  0.0000000000e+00  3.2425334841e+02  3.2425334841e+02  0.0000000000e+00 0. 9.
       21    -1     0     0   102   103  0.0000000000e+00  0.0000000000e+00 -5.5809884571e+02  5.5809884571e+02  0.0000000000e+00 0. 9.
        6     2     1     2   101     0  3.1825118235e+00  7.4279284411e+01  2.7887622094e+02  3.3682494327e+02  1.7364203215e+02  7.202582e-15 9.
       -6     2     1     2     0   103 -3.1825118235e+00 -7.4279284411e+01 -5.1272171824e+02  5.4552725084e+02  1.7084753608e+02  6.767200e-14 9.
       24     2     3     0     0     0  8.5554111841e+00  1.1359272336e+02  2.5348976344e+02  2.8947595433e+02  8.1010901126e+01  7.948097e-14 9.
        5     1     3     0   101     0 -5.3728993606e+00 -3.9313438951e+01  2.5386457495e+01  4.7348988942e+01  4.8000000000e+00 0. 9.
      -24     2     4     0     0     0  1.4805526278e+01 -8.7237237300e+01 -5.0936566613e+02  5.2259733275e+02  7.6322022990e+01  4.644768e-14 9.
       -5     1     4     0     0   103 -1.7988038101e+01  1.2957952889e+01 -3.3560521146e+00  2.2929918090e+01  4.8000000000e+00 0. 9.
      -11     1     5     0     0     0  1.3216098390e+01 -7.1417288550e+00  5.5802123640e+01  5.7788809909e+01  5.1100000000e-04 0. 9.
       12     1     5     0     0     0 -4.6606872057e+00  1.2073445222e+02  1.9768763980e+02  2.3168714442e+02  0.0000000000e+00 0. 9.
       13     1     7     0     0     0  4.5567190566e+01 -5.1928066964e+01 -2.7038317665e+02  2.7906982347e+02  1.0566000000e-01  9.507735e+05 9.
      -14     1     7     0     0     0 -3.0761664288e+01 -3.5309170336e+01 -2.3898248948e+02  2.4352750928e+02  0.0000000000e+00 0. 9.
#pdf   21   21  4.988513e-02  8.586136e-02  1.863234e+02  1.913955e+00  1.008513e+00
</event>
<event>
    12  9999  1.000000e+00  1.758912e+02  7.876161e-03  1.074098e-01
       21    -1     0     0   101   102  0.0000000000e+00  0.0000000000e+00  5.8599588639e+02  5.8599588639e+02  0.0000000000e+00 0. 9.
       21    -1     0     0   102   103  0.0000000000e+00  0.0000000000e+00 -5.4411324112e+01  5.4411324112e+01  0.0000000000e+00 0. 9.
        6     2     1     2   101     0 -3.3789072713e+01 -2.8805767190e+01  2.1084007722e+02  2.7467671552e+02  1.7035928571e+02  2.651530e-13 9.
       -6     2     1     2     0   103  3.3789072713e+01  2.8805767190e+01  3.2074448506e+02  3.6573049498e+02  1.7003028144e+02  5.096608e-14 9.
       24     2     3     0     0     0 -4.5284003744e+01  3.4254181937e+01  1.1400283548e+02  1.5844770877e+02  9.4260489818e+01  1.418963e-13 9.
        5     1     3     0   101     0  1.1494931030e+01 -6.3059949127e+01  9.6837241742e+01  1.1622900676e+02  4.8000000000e+00 0. 9.
      -24     2     4     0     0     0  2.3109900750e+01 -3.9832109849e+01  1.0211181771e+02  1.3627791576e+02  7.7615607458e+01  1.184659e-14 9.
       -5     1     4     0     0   103  1.0679171964e+01  6.8637877039e+01  2.1863266735e+02  2.2945257922e+02  4.8000000000e+00 0. 9.
       -3     1     5     0     0   104 -7.2557511442e+01  1.8440098371e+01  6.0186581845e+01  9.6058858669e+01  5.0000000000e-01 0. 9.
        4     1     5     0   104     0  2.7273507699e+01  1.5814083566e+01  5.3816253635e+01  6.2388850097e+01  1.5000000000e+00 0. 9.
       11     1     7     0     0     0  7.0837671736e+00 -4.8770658650e+01  1.0655279540e+02  1.1739784969e+02  5.1100000000e-04 0. 9.
      -12     1     7     0     0     0  1.6026133576e+01  8.9385488017e+00 -4.4409776962e+00  1.8880066074e+01  0.0000000000e+00 0. 9.
#pdf   21   21  9.015321e-02  8.370973e-03  1.757321e+02  9.517522e-01  9.263774e+00
</event>
<event>
    12  9999  1.000000e+00  1.966022e+02  7.886187e-03  1.059555e-01
       21    -1     0     0   101   102  0.0000000000e+00  0.0000000000e+00  1.4218162628e+02  1.4218162628e+02  0.0000000000e+00 0. 9.
       21    -1     0     0   103   101  0.0000000000e+00  0.0000000000e+00 -2.7691229122e+02  2.7691229122e+02  0.0000000000e+00 0. 9.
        6     2     1     2   103     0  3.2062747581e+01 -9.0017244893e+01 -9.5671002682e+01  2.1859155546e+02  1.7175040962e+02  2.993699e-14 9.
       -6     2     1     2     0   102 -3.2062747581e+01  9.0017244893e+01 -3.9059662251e+01  2.0050236204e+02  1.7188489115e+02  1.820202e-13 9.
       24     2     3     0     0     0  3.9334688102e+01 -8.4839967125e+01 -3.8504757382e+00  1.2621334108e+02  8.4675519443e+01  4.211006e-14 9.
        5     1     3     0   103     0 -7.2719405212e+00 -5.1772777675e+00 -9.1820526943e+01  9.2378214381e+01  4.8000000000e+00 0. 9.
      -24     2     4     0     0     0 -6.9679009022e+01  3.1664733918e+01  1.6434395258e+01  1.1149321037e+02  7.9390345375e+01  4.528426e-13 9.
       -5     1     4     0     0   102  3.7616261441e+01  5.8352510975e+01 -5.5494057509e+01  8.9009151668e+01  4.8000000000e+00 0. 9.
       -1     1     5     0     0   104  2.6577615312e+01 -7.5701819021e+01 -3.7890034541e+01  8.8729356226e+01  3.3000000000e-01 0. 9.
        2     1     5     0   104     0  1.2757072790e+01 -9.1381481043e+00  3.4039558803e+01  3.7483984853e+01  3.3000000000e-01 0. 9.
       15     1     7     0     0     0 -6.9009200859e+00  2.8224267444e+01  3.5391448553e+01  4.5825142562e+01  1.7768200000e+00  6.112709e-02 9.
      -16     1     7     0     0     0 -6.2778088936e+01  3.4404664738e+00 -1.8957053295e+01  6.5668067808e+01  0.0000000000e+00 0. 9.
#pdf   21   21  2.187410e-02  4.260189e-02  1.965434e+02  4.266548e+00  2.255710e+00
</event>
<event>
    12  9999  1.000000e+00  1.890679e+02  7.882665e-03  1.064614e-01
       21    -1     0     0   101   102  0.0000000000e+00  0.0000000000e+00  9.7757489422e+01  9.7757489422e+01  0.0000000000e+00 0. 9.
       21    -1     0     0   103   101  0.0000000000e+00  0.0000000000e+00 -4.4558056283e+02  4.4558056283e+02  0.0000000000e+00 0. 9.
        6     2     1     2   103     0 -6.5816582345e+01 -2.6485995319e+01 -2.8587690496e+02  3.4062294584e+02  1.7107032467e+02  8.685563e-14 9.
       -6     2     1     2     0   102  6.5816582345e+01  2.6485995319e+01 -6.1946168446e+01  2.0271510641e+02  1.7950698071e+02  9.955471e-14 9.
       24     2     3     0     0     0  4.4498953821e+00 -3.7398750334e+00 -5.6605779040e+01  9.9701686790e+01  8.1868332668e+01  8.319649e-14 9.
        5     1     3     0   103     0 -7.0266477727e+01 -2.2746120286e+01 -2.2927112592e+02  2.4092125905e+02  4.8000000000e+00 0. 9.
      -24     2     4     0     0     0 -2.2635187155e+01 -3.0216298752e+01  1.3655746897e+01  7.3186903754e+01  6.1192050546e+01  5.894634e-14 9.
       -5     1     4     0     0   102  8.8451769499e+01  5.6702294071e+01 -7.5601915343e+01  1.2952820266e+02  4.8000000000e+00 0. 9.
       -1     1     5     0     0   104  4.2816379996e+01 -2.3358426121e-01 -2.3151782401e+01  4.8676594847e+01  3.3000000000e-01 0. 9.
        2     1     5     0   104     0 -3.8366484614e+01 -3.5062907722e+00 -3.3453996639e+01  5.1025091942e+01  3.3000000000e-01 0. 9.
        3     1     7     0   105     0 -3.1668495562e+01  7.6962861780e+00  2.8696725658e+00  3.2720199461e+01  5.0000000000e-01 0. 9.
       -4     1     7     0     0   105  9.0333084077e+00 -3.7912584930e+01  1.0786074331e+01  4.0466704293e+01  1.5000000000e+00 0. 9.
#pdf   21   21  1.503961e-02  6.855086e-02  1.851982e+02  5.872636e+00  1.334225e+00
</event>
<event>
    12  9999  1.000000e+00  1.774963e+02  7.876979e-03  1.072896e-01
       21    -1     0     0   101   102  0.0000000000e+00  0.0000000000e+00  4.3728165782e+01  4.3728165782e+01  0.0000000000e+00 0. 9.
       21    -1     0     0   103   101  0.0000000000e+00  0.0000000000e+00 -9.1076658501e+02  9.1076658501e+02  0.0000000000e+00 0. 9.
        6     2     1     2   103     0 -2.6865628222e+01  2.8107273038e+01 -6.5869991454e+02  6.8319230741e+02  1.7707165419e+02  1.027248e-13 9.
       -6     2     1     2     0   102  2.6865628222e+01 -2.8107273038e+01 -2.0833850469e+02  2.7130244338e+02  1.6937621577e+02  2.175108e-13 9.
       24     2     3     0     0     0 -9.3852473664e+00  2.8366459285e+01 -6.5978068866e+02  6.6503083817e+02  7.7863468384e+01  1.265480e-13 9.
        5     1     3     0   103     0 -1.7480380856e+01 -2.5918624650e-01  1.0807741199e+00  1.8161469243e+01  4.8000000000e+00 0. 9.
      -24     2     4     0     0     0  6.7306795623e+01  1.3196877018e+01 -8.3192506545e+01  1.3336738009e+02  7.8495239519e+01  2.952446e-14 9.
       -5     1     4     0     0   102 -4.0441167401e+01 -4.1304150056e+01 -1.2514599814e+02  1.3793506329e+02  4.8000000000e+00 0. 9.
       -1     1     5     0     0   104 -2.1169308181e+01  1.8350374860e+01 -7.5268003641e+01  8.0313492879e+01  3.3000000000e-01 0. 9.
        2     1     5     0   104     0  1.1784060815e+01  1.0016084425e+01 -5.8451268502e+02  5.8471734529e+02  3.3000000000e-01 0. 9.
        1     1     7     0   105     0  4.8192211530e+01  5.4738580409e+00 -9.7070234814e+01  1.0851355566e+02  3.3000000000e-01 0. 9.
       -2     1     7     0     0   105  1.9114584093e+01  7.7230189769e+00  1.3877728270e+01  2.4853824436e+01  3.3000000000e-01 0. 9.
#pdf   21   21  6.727410e-03  1.401179e-01  1.737817e+02  1.086367e+01  5.071469e-01
</event>
<event>
    12  9999  1.000000e+00  2.123149e+02  7.893127e-03  1.049740e-01
       21    -1     0     0   101   102  0.0000000000e+00  0.0000000000e+00  2.9694554942e+02  2.9694554942e+02  0.0000000000e+00 0. 9.
       21    -1     0     0   103   101  0.0000000000e+00  0.0000000000e+00 -3.2015393620e+02  3.2015393620e+02  0.0000000000e+00 0. 9.
        6     2     1     2   103     0  3.3112287505e+01 -1.2213115034e+02 -2.3534989580e+02  3.1700343430e+02  1.7055545268e+02  1.884580e-13 9.
       -6     2     1     2     0   102 -3.3112287505e+01  1.2213115034e+02  2.1214150902e+02  3.0009605132e+02  1.7041472561e+02  2.770982e-13 9.
       24     2     3     0     0     0  3.5381765807e+01 -1.4310240686e+02 -2.4209596498e+02  2.9434303754e+02  7.9354894536e+01  9.399719e-14 9.
        5     1     3     0   103     0 -2.2694783016e+00  2.0971256525e+01  6.7460691804e+00  2.2660396761e+01  4.8000000000e+00 0. 9.
      -24     2     4     0     0     0 -3.0720588381e+01  7.2195014348e+01  3.3362352587e+01  1.1439638876e+02  7.6273275421e+01  5.839240e-14 9.
       -5     1     4     0     0   102 -2.3916991247e+00  4.9936135989e+01  1.7877915643e+02  1.8569966257e+02  4.8000000000e+00 0. 9.
      -15     1     5     0     0     0  3.1837577570e+01 -1.8203865403e+01 -2.6951549203e+01  4.5547284825e+01  1.7768200000e+00  1.946151e-03 9.
       16     1     5     0     0     0  3.5441882369e+00 -1.2489854146e+02 -2.1514441578e+02  2.4879575271e+02  0.0000000000e+00 0. 9.
       15     1     7     0     0     0  1.0995934409e+01  2.8812682594e+01 -1.7582563018e+01  3.5544125581e+01  1.7768200000e+00  1.816164e-02 9.
      -16     1     7     0     0     0 -4.1716522789e+01  4.3382331755e+01  5.0944915604e+01  7.8852263176e+01  0.0000000000e+00 0. 9.
#pdf   21   21  4.568393e-02  4.925445e-02  2.122584e+02  2.086779e+00  1.924725e+00
</event>
<event>
    12  9999  1.000000e+00  1.984118e+02  7.887013e-03  1.058375e-01
       21    -1     0     0   101   102  0.0000000000e+00  0.0000000000e+00  1.6028470348e+03  1.6028470348e+03  0.0000000000e+00 0. 9.
       21    -1     0     0   103   101  0.0000000000e+00  0.0000000000e+00 -3.3420779303e+01  3.3420779303e+01  0.0000000000e+00 0. 9.
        6     2     1     2   103     0 -9.9266059999e+01 -6.4898198842e+00  3.5723040366e+02  4.0758572737e+02  1.6916469912e+02  5.040013e-14 9.
       -6     2     1     2     0   102  9.9266059999e+01  6.4898198842e+00  1.2121958518e+03  1.2286820867e+03  1.7419821645e+02  3.515380e-13 9.
       24     2     3     0     0     0 -5.6252764130e+01 -6.8201000341e+01  2.0457540847e+02  2.3733590807e+02  8.1617924441e+01  3.566224e-13 9.
        5     1     3     0   103     0 -4.3013295869e+01  6.1711180457e+01  1.5265499519e+02  1.7024981930e+02  4.8000000000e+00 0. 9.
      -24     2     4     0     0     0  5.5923567939e+01 -4.1376726672e+01  3.2352522573e+02  3.3765554414e+02  6.7106004527e+01  5.631266e-14 9.
       -5     1     4     0     0   102  4.3342492060e+01  4.7866546556e+01  8.8867062612e+02  8.9102654260e+02  4.8000000000e+00 0. 9.
       -3     1     5     0     0   104 -5.9981698294e+01 -2.8234177145e+01  6.7973674134e+01  9.4950741254e+01  5.0000000000e-01 0. 9.
        4     1     5     0   104     0  3.7289341645e+00 -3.9966823196e+01  1.3660173434e+02  1.4238516682e+02  1.5000000000e+00 0. 9.
        1     1     7     0   105     0  5.2655073963e+01 -2.5117997328e+01  3.1211995948e+02  3.1752550860e+02  3.3000000000e-01 0. 9.
       -2     1     7     0     0   105  3.2684939759e+00 -1.6258729344e+01  1.1405266252e+01  2.0130035545e+01  3.3000000000e-01 0. 9.
#pdf   21   21  2.465919e-01  5.141658e-03  1.962462e+02  1.710598e-01  1.319991e+01
</event>
<event>
    12  9999  1.000000e+00  2.912482e+02  7.921786e-03  1.011254e-01
       21    -1     0     0   101   102  0.0000000000e+00  0.0000000000e+00  2.7587572176e+02  2.7587572176e+02  0.0000000000e+00 0. 9.
       21    -1     0     0   103   101  0.0000000000e+00  0.0000000000e+00 -5.0213060073e+02  5.0213060073e+02  0.0000000000e+00 0. 9.
        6     2     1     2   103     0 -2.2107741423e+02  8.6869682838e+01 -3.5478149339e+02  4.5760736410e+02  1.6466033751e+02  2.529432e-13 9.
       -6     2     1     2     0   102  2.2107741423e+02 -8.6869682838e+01  1.2852661442e+02  3.2039895839e+02  1.7237992065e+02  7.583307e-14 9.
       24     2     3     0     0     0 -1.0398118167e+02  1.7733522257e+01 -9.3701212337e+01  1.6319729373e+02  8.2017531877e+01  2.311411e-13 9.
        5     1     3     0   103     0 -1.1709623256e+02  6.9136160581e+01 -2.6108028105e+02  2.9441007037e+02  4.8000000000e+00 0. 9.
      -24     2     4     0     0     0  2.3739097662e+02 -9.9321110354e+01  1.1851389213e+02  2.9706518517e+02  8.9347763659e+01  3.515994e-13 9.
       -5     1     4     0     0   102 -1.6313562388e+01  1.2451427516e+01  1.0012722295e+01  2.3333773221e+01  4.8000000000e+00 0. 9.
       -1     1     5     0     0   104 -1.1446979763e+02  6.3353747887e+00 -6.8312857892e+01  1.3345496242e+02  3.3000000000e-01 0. 9.
        2     1     5     0   104     0  1.0488615954e+01  1.1398147468e+01 -2.5388354445e+01  2.9742331310e+01  3.3000000000e-01 0. 9.
       11     1     7     0     0     0  1.4807136469e+00 -2.4032388169e+01  1.6785430499e+01  2.9351301015e+01  5.1100000000e-04 0. 9.
      -12     1     7     0     0     0  2.3591026297e+02 -7.5288722185e+01  1.0172846163e+02  2.6771388416e+02  0.0000000000e+00 0. 9.
#pdf   21   21  4.244242e-02  7.725086e-02  2.890235e+02  2.215937e+00  1.109100e+00
</event>
<event>
    12  9999  1.000000e+00  1.758736e+02  7.876152e-03  1.074111e-01
       21    -1     0     0   101   102  0.0000000000e+00  0.0000000000e+00  6.9661337228e+01  6.9661337228e+01  0.0000000000e+00 0. 9.
       21    -1     0     0   103   101  0.0000000000e+00  0.0000000000e+00 -9.4157362042e+02  9.4157362042e+02  0.0000000000e+00 0. 9.
        6     2     1     2   103     0  4.3857153158e+01 -1.0095256362e+01 -8.0293576841e+02  8.2186859891e+02  1.6951926615e+02  1.359317e-13 9.
       -6     2     1     2     0   102 -4.3857153158e+01  1.0095256362e+01 -6.8976514790e+01  1.8936635875e+02  1.7051831030e+02  2.446152e-13 9.
       24     2     3     0     0     0  8.2954487940e+01 -3.3428205128e+01 -4.4482749748e+02  4.6084560547e+02  8.0673896630e+01  4.549662e-14 9.
        5     1     3     0   103     0 -3.9097334782e+01  2.3332948766e+01 -3.5810827092e+02  3.6102299344e+02  4.8000000000e+00 0. 9.
      -24     2     4     0     0     0  2.7550992549e+01  3.3901498895e+01 -6.4300658211e+00  9.1381876630e+01  8.0005829864e+01  1.552383e-13 9.
       -5     1     4     0     0   102 -7.1408145707e+01 -2.3806242532e+01 -6.2546448969e+01  9.7984482115e+01  4.8000000000e+00 0. 9.
       -1     1     5     0     0   104 -5.1114834812e+00 -2.9984087630e+01 -8.1793158753e+01  8.7266273515e+01  3.3000000000e-01 0. 9.
        2     1     5     0   104     0  8.8065971422e+01 -3.4441174987e+00 -3.6303433873e+02  3.7357933195e+02  3.3000000000e-01 0. 9.
       11     1     7     0     0     0  4.0627218357e+00  1.9092970109e+01 -4.1966263905e+01  4.6284063378e+01  5.1100000000e-04 0. 9.
      -12     1     7     0     0     0  2.3488270713e+01  1.4808528785e+01  3.5536198084e+01  4.5097813253e+01  0.0000000000e+00 0. 9.
#pdf   21   21  1.071713e-02  1.448575e-01  1.753914e+02  7.684480e+00  4.805379e-01
</event>
<event>
    12  9999  1.000000e+00  2.007697e+02  7.888079e-03  1.056859e-01
       21    -1     0     0   101   102  0.0000000000e+00  0.0000000000e+00  7.1682814585e+01  7.1682814585e+01  0.0000000000e+00 0. 9.
       21    -1     0     0   103   101  0.0000000000e+00  0.0000000000e+00 -5.6658285623e+02  5.6658285623e+02  0.0000000000e+00 0. 9.
        6     2     1     2   103     0  1.0414818673e+02  1.3270463957e+01 -2.7500583354e+02  3.4043007109e+02  1.7100138833e+02  3.369617e-13 9.
       -6     2     1     2     0   102 -1.0414818673e+02 -1.3270463957e+01 -2.1989420810e+02  2.9783559972e+02  1.7125896092e+02  4.047812e-14 9.
       24     2     3     0     0     0  6.2287259433e+01 -3.8564466066e+01 -2.1829580830e+02  2.5280436614e+02  1.0435548328e+02  5.873653e-14 9.
        5     1     3     0   103     0  4.1860927293e+01  5.1834930024e+01 -5.6710025248e+01  8.7625704950e+01  4.8000000000e+00 0. 9.
      -24     2     4     0     0     0 -1.0299346201e+01 -2.6617216108e+01 -1.7064682782e+02  1.9090531811e+02  8.0684248230e+01  3.528202e-13 9.
       -5     1     4     0     0   102 -9.3848840525e+01  1.3346752151e+01 -4.9247380280e+01  1.0693028161e+02  4.8000000000e+00 0. 9.
       -1     1     5     0     0   104 -4.9087668350e+00 -4.9432298184e+01 -4.6620981059e+01  6.8126888015e+01  3.3000000000e-01 0. 9.
        2     1     5     0   104     0  6.7196026268e+01  1.0867832118e+01 -1.7167482724e+02  1.8467747813e+02  3.3000000000e-01 0. 9.
        3     1     7     0   105     0 -4.5084596968e+01 -1.2817198191e+01 -1.1098351430e+02  1.2047610510e+02  5.0000000000e-01 0. 9.
       -2     1     7     0     0   105  3.4785250767e+01 -1.3800017917e+01 -5.9663313520e+01  7.0429213013e+01  3.3000000000e-01 0. 9.
#pdf   21   21  1.102813e-02  8.716659e-02  2.006600e+02  7.526085e+00  9.820953e-01
</event>
<event>
    12  9999  1.000000e+00  2.090225e+02  7.891715e-03  1.051720e-01
       21    -1     0     0   101   102  0.0000000000e+00  0.0000000000e+00  7.6395852553e+02  7.6395852553e+02  0.0000000000e+00 0. 9.
       21    -1     0     0   103   101  0.0000000000e+00  0.0000000000e+00 -5.7591163484e+01  5.7591163484e+01  0.0000000000e+00 0. 9.
        6     2     1     2   103     0  1.1489009152e+02  4.3957755035e+01  3.9056845984e+02  4.4391834106e+02  1.7142856925e+02  6.591318e-14 9.
       -6     2     1     2     0   102 -1.1489009152e+02 -4.3957755035e+01  3.1579890220e+02  3.7763134795e+02  1.6656671624e+02  3.007871e-13 9.
       24     2     3     0     0     0  1.1121177014e+02  8.2194871473e+01  3.5684197474e+02  3.9257515341e+02  8.7492864976e+01  1.888979e-14 9.
        5     1     3     0   103     0  3.6783213811e+00 -3.8237116438e+01  3.3726485095e+01  5.1343187655e+01  4.8000000000e+00 0. 9.
      -24     2     4     0     0     0 -2.3131120058e+01 -3.5013441330e+01  6.9022851079e+01  1.1415237535e+02  8.0657430146e+01  4.095064e-14 9.
       -5     1     4     0     0   102 -9.1758971466e+01 -8.9443137046e+00  2.4677605113e+02  2.6347897260e+02  4.8000000000e+00 0. 9.
      -11     1     5     0     0     0  5.8316310715e+01  2.6116369503e+01  2.6535548149e+02  2.7294026528e+02  5.1100000000e-04 0. 9.
       12     1     5     0     0     0  5.2895459428e+01  5.6078501970e+01  9.1486493253e+01  1.1963488813e+02  0.0000000000e+00 0. 9.
        3     1     7     0   104     0  1.8803226065e+01  1.4918837778e+01  2.8923021144e+01  3.7588883772e+01  5.0000000000e-01 0. 9.
       -4     1     7     0     0   104 -4.1934346123e+01 -4.9932279108e+01  4.0099829935e+01  7.6563491577e+01  1.5000000000e+00 0. 9.
#pdf   21   21  1.175321e-01  8.860179e-03  2.070664e+02  6.479021e-01  8.905855e+00
</event>
<event>
    12  9999  1.000000e+00  1.740426e+02  7.875211e-03  1.075500e-01
       21    -1     0     0   101   102  0.0000000000e+00  0.0000000000e+00  5.6220003500e+01  5.6220003500e+01  0.0000000000e+00 0. 9.
       21    -1     0     0   102   103  0.0000000000e+00  0.0000000000e+00 -7.5659757295e+02  7.5659757295e+02  0.0000000000e+00 0. 9.
        6     2     1     2   101     0  1.0872946148e+00  3.2082000580e+01 -1.3197151093e+02  2.1832978544e+02  1.7094144769e+02  5.910081e-14 9.
       -6     2     1     2     0   103 -1.0872946148e+00 -3.2082000580e+01 -5.6840605852e+02  5.9448779102e+02  1.7117198759e+02  9.855651e-15 9.
       24     2     3     0     0     0 -5.1636106698e+01  1.2141126012e+00 -2.9942356729e+01  9.9310577483e+01  7.9361731893e+01  9.971511e-15 9.
        5     1     3     0   101     0  5.2723401313e+01  3.0867887979e+01 -1.0202915420e+02  1.1901920795e+02  4.8000000000e+00 0. 9.
      -24     2     4     0     0     0 -2.2368658500e+01 -8.3364096744e+01 -3.9390389845e+02  4.1130265597e+02  8.0991753150e+01  2.390212e-13 9.
       -5     1     4     0     0   103  2.1281363886e+01  5.1282096164e+01 -1.7450216007e+02  1.8318513505e+02  4.8000000000e+00 0. 9.
       -1     1     5     0     0   104 -3.1266711039e+00 -2.6484120511e+01  1.2207799935e+01  2.9331280073e+01  3.3000000000e-01 0. 9.
        2     1     5     0   104     0 -4.8509435594e+01  2.7698233112e+01 -4.2150156664e+01  6.9979297410e+01  3.3000000000e-01 0. 9.
       15     1     7     0     0     0 -2.9502687246e+01 -4.8403105170e+01 -9.7781363705e+01  1.1303814101e+02  1.7768200000e+00  1.115805e-01 9.
      -16     1     7     0     0     0  7.1340287461e+00 -3.4960991574e+01 -2.9612253475e+02  2.9826451496e+02  0.0000000000e+00 0. 9.
#pdf   21   21  8.649231e-03  1.163996e-01  1.739293e+02  9.039079e+00  6.704805e-01
</event>
<event>
    12  9999  1.000000e+00  1.747544e+02  7.875578e-03  1.074958e-01
       21    -1     0     0   101   102  0.0000000000e+00  0.0000000000e+00  2.6702746470e+02  2.6702746470e+02  0.0000000000e+00 0. 9.
       21    -1     0     0   102   103  0.0000000000e+00  0.0000000000e+00 -3.5650121652e+02  3.5650121652e+02  0.0000000000e+00 0. 9.
        6     2     1     2   101     0 -4.1860270715e+00 -3.3486485833e+01  2.1216718426e+02  2.7511095991e+02  1.7184952322e+02  2.496175e-13 9.
       -6     2     1     2     0   103  4.1860270715e+00  3.3486485833e+01 -3.0164093608e+02  3.4841772130e+02  1.7108122820e+02  8.550100e-14 9.
       24     2     3     0     0     0  2.0687075718e+01 -8.3419968777e+01  1.3120183920e+02  1.7667087122e+02  8.1313146756e+01  6.930192e-14 9.
        5     1     3     0   101     0 -2.4873102790e+01  4.9933482944e+01  8.0965345059e+01  9.8440088692e+01  4.8000000000e+00 0. 9.
      -24     2     4     0     0     0 -7.8586593218e-01 -3.2450270747e+01 -8.2913566609e+01  1.1986340009e+02  8.0242990332e+01  1.065845e-13 9.
       -5     1     4     0     0   103  4.9718930037e+00  6.5936756580e+01 -2.1872736947e+02  2.2855432121e+02  4.8000000000e+00 0. 9.
      -15     1     5     0     0     0  5.0623003318e+01 -4.0329679710e+01  6.0396929025e+01  8.8544438873e+01  1.7768200000e+00  7.657913e-02 9.
       16     1     5     0     0     0 -2.9935927600e+01 -4.3090289066e+01  7.0804910177e+01  8.8126432347e+01  0.0000000000e+00 0. 9.
        3     1     7     0   104     0 -2.9241173798e+01  1.3727287889e+01 -3.0032122211e+01  4.4109670622e+01  5.0000000000e-01 0. 9.
       -2     1     7     0     0   104  2.8455307866e+01 -4.6177558636e+01 -5.2881444398e+01  7.5753729472e+01  3.3000000000e-01 0. 9.
#pdf   21   21  4.108115e-02  5.484634e-02  1.743779e+02  2.356279e+00  1.732211e+00
</event>
<event>
    12  9999  1.000000e+00  1.726596e+02  7.874494e-03  1.076560e-01
       21    -1     0     0   101   102  0.0000000000e+00  0.0000000000e+00  2.6772981036e+02  2.6772981036e+02  0.0000000000e+00 0. 9.
       21    -1     0     0   102   103  0.0000000000e+00  0.0000000000e+00 -1.8152492300e+02  1.8152492300e+02  0.0000000000e+00 0. 9.
        6     2     1     2   101     0  1.7981731649e+01  2.6783275832e+01  1.8341221481e+02  2.5544754095e+02  1.7485056219e+02  2.276230e-13 9.
       -6     2     1     2     0   103 -1.7981731649e+01 -2.6783275832e+01 -9.7207327454e+01  1.9380719241e+02  1.6453351264e+02  1.010066e-13 9.
       24     2     3     0     0     0  7.3847312568e+01 -2.8236255656e+00  9.1358091114e+01  1.4366859198e+02  8.2661750984e+01  2.980118e-14 9.
        5     1     3     0   101     0 -5.5865580919e+01  2.9606901397e+01  9.2054123694e+01  1.1177894896e+02  4.8000000000e+00 0. 9.
      -24     2     4     0     0     0 -1.9528106087e+01  3.6315314500e+01 -5.0033692658e+00  8.1966085115e+01  7.0662977651e+01  1.141276e-13 9.
       -5     1     4     0     0   103  1.5463744387e+00 -6.3098590332e+01 -9.2203958188e+01  1.1184110730e+02  4.8000000000e+00 0. 9.
      -11     1     5     0     0     0  4.7934994617e+01 -1.5088212202e+01  1.0149998306e+02  1.1325927961e+02  5.1100000000e-04 0. 9.
       12     1     5     0     0     0  2.5912317951e+01  1.2264586637e+01 -1.0141891944e+01  3.0409312376e+01  0.0000000000e+00 0. 9.
        1     1     7     0   104     0 -3.9291757578e+01  2.4040916698e+01  1.7803500929e+01  4.9385032496e+01  3.3000000000e-01 0. 9.
       -2     1     7     0     0   104  1.9763651491e+01  1.2274397803e+01 -2.2806870195e+01  3.2581052619e+01  3.3000000000e-01 0. 9.
#pdf   21   21  4.118920e-02  2.792691e-02  1.676662e+02  2.354359e+00  3.434202e+00
</event>
<event>
    12  9999  1.000000e+00  2.094381e+02  7.891895e-03  1.051468e-01
       21    -1     0     0   101   102  0.0000000000e+00  0.0000000000e+00  2.1358400297e+03  2.1358400297e+03  0.0000000000e+00 0. 9.
       21    -1     0     0   103   101  0.0000000000e+00  0.0000000000e+00 -2.7710963272e+01  2.7710963272e+01  0.0000000000e+00 0. 9.
        6     2     1     2   103     0 -7.6646973174e+01  9.3130335439e+01  5.0593665596e+02  5.4780633695e+02  1.7196472045e+02  1.471539e-13 9.
       -6     2     1     2     0   102  7.6646973174e+01 -9.3130335439e+01  1.6021924105e+03  1.6157446560e+03  1.7047655393e+02  3.467579e-15 9.
       24     2     3     0     0     0  9.9845768608e+00  7.5755164874e+01  3.6419290645e+02  3.8070980036e+02  8.0404864290e+01  5.002740e-14 9.
        5     1     3     0   103     0 -8.6631550035e+01  1.7375170566e+01  1.4174374951e+02  1.6709653658e+02  4.8000000000e+00 0. 9.
      -24     2     4     0     0     0  9.7541955668e+00 -6.8657096245e+01  1.3351780561e+03  1.3393512976e+03  7.9702670901e+01  7.392613e-14 9.
       -5     1     4     0     0   102  6.6892777607e+01 -2.4473239194e+01  2.6701435436e+02  2.7639335840e+02  4.8000000000e+00 0. 9.
       -1     1     5     0     0   104  3.0023383902e+01 -1.0712811531e+00  1.2990297633e+02  1.3333207935e+02  3.3000000000e-01 0. 9.
        2     1     5     0   104     0 -2.0038807041e+01  7.6826446027e+01  2.3428993012e+02  2.4737772101e+02  3.3000000000e-01 0. 9.
        3     1     7     0   105     0  8.7558985805e+00 -8.6424932791e+01  1.0330908370e+03  1.0367366407e+03  5.0000000000e-01 0. 9.
       -4     1     7     0     0   105  9.9829698628e-01  1.7767836546e+01  3.0208721914e+02  3.0261465692e+02  1.5000000000e+00 0. 9.
#pdf   21   21  3.285908e-01  4.263225e-03  2.088307e+02  7.501108e-02  1.506331e+01
</event>
<event>
    12  9999  1.000000e+00  2.178778e+02  7.895464e-03  1.046480e-01
       21    -1     0     0   101   102  0.0000000000e+00  0.0000000000e+00  1.7638002207e+02  1.7638002207e+02  0.0000000000e+00 0. 9.
       21    -1     0     0   103   101  0.0000000000e+00  0.0000000000e+00 -3.7186845600e+02  3.7186845600e+02  0.0000000000e+00 0. 9.
        6     2     1     2   103     0 -1.3525571459e+02  1.7141194970e+01 -2.4195720724e+02  3.2587661008e+02  1.7048268524e+02  1.121693e-14 9.
       -6     2     1     2     0   102  1.3525571459e+02 -1.7141194970e+01  4.6468773317e+01  2.2237186799e+02  1.6941656320e+02  3.804848e-14 9.
       24     2     3     0     0     0 -1.0677873761e+02  9.4948014832e+00 -2.5849519187e+02  2.9173059294e+02  8.2432545620e+01  3.624522e-14 9.
        5     1     3     0   103     0 -2.8476976974e+01  7.6463934870e+00  1.6537984624e+01  3.4146017138e+01  4.8000000000e+00 0. 9.
      -24     2     4     0     0     0  7.5387539193e+01 -7.5590594502e+01  2.1235319783e+01  1.3484874014e+02  7.9599151183e+01  2.451522e-14 9.
       -5     1     4     0     0   102  5.9868175394e+01  5.8449399532e+01  2.5233453533e+01  8.7523127846e+01  4.8000000000e+00 0. 9.
       -3     1     5     0     0   104 -5.3913460030e+01  4.3993146110e+01 -1.0741115306e+02  1.2798227955e+02  5.0000000000e-01 0. 9.
        4     1     5     0   104     0 -5.2865277582e+01 -3.4498344627e+01 -1.5108403881e+02  1.6374831339e+02  1.5000000000e+00 0. 9.
       11     1     7     0     0     0  2.7612735171e+01 -4.6440415247e+01 -2.7511071566e+01  6.0630309012e+01  5.1100000000e-04 0. 9.
      -12     1     7     0     0     0  4.7774804022e+01 -2.9150179256e+01  4.8746391349e+01  7.4218431131e+01  0.0000000000e+00 0. 9.
#pdf   21   21  2.713539e-02  5.721053e-02  2.174624e+02  3.498144e+00  1.627282e+00
</event>
<event>
    12  9999  1.000000e+00  1.792115e+02  7.877844e-03  1.071627e-01
       21    -1     0     0   101   102  0.0000000000e+00  0.0000000000e+00  8.0402688773e+02  8.0402688773e+02  0.0000000000e+00 0. 9.
       21    -1     0     0   102   103  0.0000000000e+00  0.0000000000e+00 -4.6730236131e+01  4.6730236131e+01  0.0000000000e+00 0. 9.
        6     2     1     2   101     0 -4.3530207607e+01 -2.6145811208e+01  5.3524788723e+02  5.6352821225e+02  1.6880539919e+02  7.509389e-14 9.
       -6     2     1     2     0   103  4.3530207607e+01  2.6145811208e+01  2.2204876437e+02  2.8722891161e+02  1.7497517393e+02  4.908255e-14 9.
       24     2     3     0     0     0 -1.4358117875e+01 -7.7329353484e+01  4.0321005301e+02  4.1886378855e+02  8.1746816737e+01  7.410642e-14 9.
        5     1     3     0   101     0 -2.9172089732e+01  5.1183542276e+01  1.3203783422e+02  1.4466442370e+02  4.8000000000e+00 0. 9.
      -24     2     4     0     0     0  2.8787894240e+00  5.8518527538e+01  5.8108107579e+01  1.1518208801e+02  8.0359540434e+01  6.069691e-14 9.
       -5     1     4     0     0   103  4.0651418183e+01 -3.2372716330e+01  1.6394065679e+02  1.7204682360e+02  4.8000000000e+00 0. 9.
      -13     1     5     0     0     0 -1.5909179560e+01 -2.6807378975e+01  3.3677424108e+01  4.5890278059e+01  1.0566000000e-01  3.015284e+05 9.
       14     1     5     0     0     0  1.5510616851e+00 -5.0521974509e+01  3.6953262890e+02  3.7297351049e+02  0.0000000000e+00 0. 9.
       13     1     7     0     0     0 -4.7340094923e+00  2.7904055979e+01  7.4453914508e+01  7.9652016519e+01  1.0566000000e-01  1.099171e+06 9.
      -14     1     7     0     0     0  7.6127989163e+00  3.0614471559e+01 -1.6345806929e+01  3.5530071493e+01  0.0000000000e+00 0. 9.
#pdf   21   21  1.236964e-01  7.189267e-03  1.762775e+02  6.123750e-01  1.035937e+01
</event>
<event>
    12  9999  1.000000e+00  1.843027e+02  7.880366e-03  1.067946e-01
       -2    -1     0     0     0   101  0.0000000000e+00  0.0000000000e+00  4.7953639230e+01  4.7953639230e+01  0.0000000000e+00 0. 9.
        2    -1     0     0   102     0  0.0000000000e+00  0.0000000000e+00 -1.0938379995e+03  1.0938379995e+03  0.0000000000e+00 0. 9.
       -6     2     1     2     0   101  3.9387230246e+01  6.6090175638e+01 -8.6706401515e+02  8.8704531613e+02  1.7067548527e+02  3.019532e-13 9.
        6     2     1     2   102     0 -3.9387230246e+01 -6.6090175638e+01 -1.7882034512e+02  2.5474632260e+02  1.6431587820e+02  3.529550e-13 9.
      -24     2     3     0     0     0 -1.0959814859e+01 -1.9693760401e+01 -2.9585194860e+02  3.0721777832e+02  7.9664459338e+01  1.482987e-14 9.
       -5     1     3     0     0   101  5.0347045105e+01  8.5783936038e+01 -5.7121206654e+02  5.7982753781e+02  4.8000000000e+00 0. 9.
       24     2     4     0     0     0 -1.2051599884e+00 -1.0012098085e+02 -1.4297550684e+02  1.9210561201e+02  8.0230339609e+01  2.594065e-13 9.
        5     1     4     0   102     0 -3.8182070257e+01  3.4030805208e+01 -3.5844838280e+01  6.2640710592e+01  4.8000000000e+00 0. 9.
        1     1     5     0   103     0  7.3994379918e+00 -3.9620390010e+01 -7.9088635506e+01  8.8767382260e+01  3.3000000000e-01 0. 9.
       -2     1     5     0     0   103 -1.8359252851e+01  1.9926629609e+01 -2.1676331310e+02  2.1845039606e+02  3.3000000000e-01 0. 9.
       -3     1     7     0     0   104 -3.1724318557e+01 -2.0607192942e+01 -7.1565334707e+01  8.0950206427e+01  5.0000000000e-01 0. 9.
        4     1     7     0   104     0  3.0519158568e+01 -7.9513787903e+01 -7.1410172133e+01  1.1115540558e+02  1.5000000000e+00 0. 9.
#pdf   -2    2  7.377483e-03  1.682828e-01  1.814359e+02  6.162546e-01  4.958213e-01
</event>
<event>
    12  9999  1.000000e+00  2.041103e+02  7.889568e-03  1.054748e-01
       21    -1     0     0   101   102  0.0000000000e+00  0.0000000000e+00  3.1044300894e+02  3.1044300894e+02  0.0000000000e+00 0. 9.
       21    -1     0     0   103   101  0.0000000000e+00  0.0000000000e+00 -2.8740859049e+02  2.8740859049e+02  0.0000000000e+00 0. 9.
        6     2     1     2   103     0  4.9619597091e+01  9.9894978656e+01 -2.0673434156e+02  2.9051347682e+02  1.7093238739e+02  3.455391e-13 9.
       -6     2     1     2     0   102 -4.9619597091e+01 -9.9894978656e+01  2.2976876001e+02  3.0733812261e+02  1.7094422294e+02  1.474041e-13 9.
       24     2     3     0     0     0 -3.0136570003e+01  2.5327483247e+01 -1.3149083797e+02  1.5782594013e+02  7.7906948649e+01  9.191369e-15 9.
        5     1     3     0   103     0  7.9756167094e+01  7.4567495409e+01 -7.5243503586e+01  1.3268753669e+02  4.8000000000e+00 0. 9.
      -24     2     4     0     0     0 -1.5307855856e+01 -2.1554111521e+01  1.9949708307e+02  2.1648658726e+02  7.9802544678e+01  4.623506e-14 9.
       -5     1     4     0     0   102 -3.4311741235e+01 -7.8340867135e+01  3.0271676939e+01  9.0851535346e+01  4.8000000000e+00 0. 9.
       -1     1     5     0     0   104  1.4382351428e+01  2.1872892229e+01 -9.3848670782e+00  2.7811150231e+01  3.3000000000e-01 0. 9.
        2     1     5     0   104     0 -4.4518921432e+01  3.4545910184e+00 -1.2210597089e+02  1.3001478990e+02  3.3000000000e-01 0. 9.
        1     1     7     0   105     0 -2.9839291777e+01  2.0654723682e+00  2.2760433164e+01  3.7587175042e+01  3.3000000000e-01 0. 9.
       -2     1     7     0     0   105  1.4531435921e+01 -2.3619583889e+01  1.7673664991e+02  1.7889941222e+02  3.3000000000e-01 0. 9.
#pdf   21   21  4.776046e-02  4.421671e-02  2.041053e+02  1.994736e+00  2.165059e+00
</event>
<event>
    12  9999  1.000000e+00  2.623465e+02  7.912288e-03  1.023658e-01
       21    -1     0     0   101   102  0.0000000000e+00  0.0000000000e+00  1.8864973038e+02  1.8864973038e+02  0.0000000000e+00 0. 9.
       21    -1     0     0   103   101  0.0000000000e+00  0.0000000000e+00 -3.7823541267e+02  3.7823541267e+02  0.0000000000e+00 0. 9.
        6     2     1     2   103     0 -3.8290290896e+01  1.9480073853e+02 -1.4820557694e+02  3.0146143439e+02  1.7175747227e+02  2.593229e-15 9.
       -6     2     1     2     0   102  3.8290290896e+01 -1.9480073853e+02 -4.1380105352e+01  2.6542370865e+02  1.7124239512e+02  5.902755e-15 9.
       24     2     3     0     0     0 -4.3272687619e+01  2.1623944427e+02 -1.2108785740e+02  2.6620731273e+02  8.7017477497e+01  9.224299e-14 9.
        5     1     3     0   103     0  4.9823967225e+00 -2.1438705741e+01 -2.7117719542e+01  3.5254121662e+01  4.8000000000e+00 0. 9.
      -24     2     4     0     0     0 -3.5997281085e+01 -7.9362208387e+01  5.4261578243e+00  1.2030801734e+02  8.2767212597e+01  3.150832e-17 9.
       -5     1     4     0     0   102  7.4287571981e+01 -1.1543853015e+02 -4.6806263177e+01  1.4511569131e+02  4.8000000000e+00 0. 9.
       -3     1     5     0     0   104  9.8671074941e+00  6.9265397554e+01 -2.4891894271e+00  7.0010721840e+01  5.0000000000e-01 0. 9.
        4     1     5     0   104     0 -5.3139795113e+01  1.4697404672e+02 -1.1859866797e+02  1.9619659089e+02  1.5000000000e+00 0. 9.
        1     1     7     0   105     0 -9.2898525457e+00  1.0734703328e+01 -1.8515202250e+01  2.3333598741e+01  3.3000000000e-01 0. 9.
       -2     1     7     0     0   105 -2.6707428539e+01 -9.0096911715e+01  2.3941360074e+01  9.6974418595e+01  3.3000000000e-01 0. 9.
#pdf   21   21  2.902304e-02  5.819006e-02  2.621782e+02  3.260344e+00  1.574542e+00
</event>
<event>
    12  9999  1.000000e+00  2.080250e+02  7.891283e-03  1.052328e-01
       21    -1     0     0   101   102  0.0000000000e+00  0.0000000000e+00  4.6744535259e+02  4.6744535259e+02  0.0000000000e+00 0. 9.
       21    -1     0     0   102   103  0.0000000000e+00  0.0000000000e+00 -1.0160534941e+02  1.0160534941e+02  0.0000000000e+00 0. 9.
        6     2     1     2   101     0 -1.1185686687e+02 -4.9937039391e+01  2.6940347456e+02  3.4169218563e+02  1.7079124991e+02  3.425867e-13 9.
       -6     2     1     2     0   103  1.1185686687e+02  4.9937039391e+01  9.6436528617e+01  2.2735851636e+02  1.6548783744e+02  2.307430e-13 9.
       24     2     3     0     0     0 -5.0976285425e+00 -1.1614448075e+01  5.3477022864e+01  9.7738443054e+01  8.0821593992e+01  9.373976e-14 9.
        5     1     3     0   101     0 -1.0675923833e+02 -3.8322591317e+01  2.1592645170e+02  2.4395374258e+02  4.8000000000e+00 0. 9.
      -24     2     4     0     0     0  1.1000023101e+02  8.9108366606e+01  5.8926340390e+01  1.7288013356e+02  7.9842815366e+01  5.386961e-14 9.
       -5     1     4     0     0   103  1.8566358636e+00 -3.9171327215e+01  3.7510188226e+01  5.4478382807e+01  4.8000000000e+00 0. 9.
       -1     1     5     0     0   104  8.3910805455e+00  3.2278688014e+01  3.4692132218e+01  4.8124597354e+01  3.3000000000e-01 0. 9.
        2     1     5     0   104     0 -1.3488709088e+01 -4.3893136089e+01  1.8784890646e+01  4.9613845700e+01  3.3000000000e-01 0. 9.
        3     1     7     0   105     0  1.4811937402e+01  3.7436256269e+00 -1.8032191820e+01  2.3639335106e+01  5.0000000000e-01 0. 9.
       -4     1     7     0     0   105  9.5188293606e+01  8.5364740979e+01  7.6958532210e+01  1.4924079845e+02  1.5000000000e+00 0. 9.
#pdf   21   21  7.191467e-02  1.563159e-02  2.058929e+02  1.248432e+00  5.684701e+00
</event>
<event>
    12  9999  1.000000e+00  2.054611e+02  7.890164e-03  1.053906e-01
       21    -1     0     0   101   102  0.0000000000e+00  0.0000000000e+00  9.0660412240e+01  9.0660412240e+01  0.0000000000e+00 0. 9.
       21    -1     0     0   103   101  0.0000000000e+00  0.0000000000e+00 -6.2182673959e+02  6.2182673959e+02  0.0000000000e+00 0. 9.
        6     2     1     2   103     0  5.6167483076e+01  1.0002410244e+02 -4.4367946365e+02  4.8874989853e+02  1.6989817428e+02  5.508114e-14 9.
       -6     2     1     2     0   102 -5.6167483076e+01 -1.0002410244e+02 -8.7486863702e+01  2.2373725330e+02  1.7101111067e+02  8.171567e-14 9.
       24     2     3     0     0     0  8.5768119728e+01  1.1632295038e+02 -4.0557363705e+02  4.3759382210e+02  7.8174029757e+01  9.764257e-14 9.
        5     1     3     0   103     0 -2.9600636652e+01 -1.6298847938e+01 -3.8105826602e+01  5.1156076426e+01  4.8000000000e+00 0. 9.
      -24     2     4     0     0     0  3.7063470036e+00 -1.1110862996e+02 -3.0004399277e+01  1.3986225110e+02  7.9387156685e+01  1.634386e-13 9.
       -5     1     4     0     0   102 -5.9873830080e+01  1.1084527522e+01 -5.7482464426e+01  8.3875002207e+01  4.8000000000e+00 0. 9.
       -1     1     5     0     0   104  8.8739773073e+01  6.5556696519e+01 -3.1440136613e+02  3.3319777267e+02  3.3000000000e-01 0. 9.
        2     1     5     0   104     0 -2.9716533445e+00  5.0766253856e+01 -9.1172270917e+01  1.0439604944e+02  3.3000000000e-01 0. 9.
        1     1     7     0   105     0 -3.5394874995e+01 -4.5044933710e+01  4.0595085426e-01  5.7289762828e+01  3.3000000000e-01 0. 9.
       -2     1     7     0     0   105  3.9101221998e+01 -6.6063696249e+01 -3.0410350131e+01  8.2572488269e+01  3.3000000000e-01 0. 9.
#pdf   21   21  1.394776e-02  9.566565e-02  2.050000e+02  6.242796e+00  8.663333e-01
</event>
<event>
    12  9999  1.000000e+00  2.243669e+02  7.898118e-03  1.042805e-01
       21    -1     0     0   101   102  0.0000000000e+00  0.0000000000e+00  3.0303809006e+03  3.0303809006e+03  0.0000000000e+00 0. 9.
       21    -1     0     0   103   101  0.0000000000e+00  0.0000000000e+00 -5.1242005388e+01  5.1242005388e+01  0.0000000000e+00 0. 9.
        6     2     1     2   103     0 -1.2565132818e+02  7.2973917260e+01  2.2333251246e+02  3.1671432424e+02  1.7122237932e+02  2.087577e-13 9.
       -6     2     1     2     0   102  1.2565132818e+02 -7.2973917260e+01  2.7558063827e+03  2.7649085817e+03  1.7069621362e+02  5.829677e-15 9.
       24     2     3     0     0     0 -1.0258246667e+02  8.7074043129e+01  2.3745018678e+02  2.8583820645e+02  8.4946086490e+01  1.764108e-13 9.
        5     1     3     0   103     0 -2.3068861511e+01 -1.4100125870e+01 -1.4117674325e+01  3.0876117782e+01  4.8000000000e+00 0. 9.
      -24     2     4     0     0     0  1.4365006460e+02 -7.4204546870e+01  1.8061981636e+03  1.8151168789e+03  7.8459046404e+01  4.354317e-14 9.
       -5     1     4     0     0   102 -1.7998736421e+01  1.2306296105e+00  9.4960821911e+02  9.4979170282e+02  4.8000000000e+00 0. 9.
       -1     1     5     0     0   104 -1.3558683549e+01  5.6827641835e+01  1.3321417804e+02  1.4546252063e+02  3.3000000000e-01 0. 9.
        2     1     5     0   104     0 -8.9023783123e+01  3.0246401295e+01  1.0423600874e+02  1.4037568583e+02  3.3000000000e-01 0. 9.
        3     1     7     0   105     0  5.3221914661e+01 -1.2155272775e+01  1.0005694747e+03  1.0020578060e+03  5.0000000000e-01 0. 9.
       -2     1     7     0     0   105  9.0428149944e+01 -6.2049274095e+01  8.0562868885e+02  8.1305907284e+02  3.3000000000e-01 0. 9.
#pdf   21   21  4.662124e-01  7.883385e-03  2.241666e+02  1.432147e-02  9.732835e+00
</event>
<event>
    12  9999  1.000000e+00  3.789874e+02  7.945820e-03  9.813101e-02
       21    -1     0     0   101   102  0.0000000000e+00  0.0000000000e+00  3.6247236769e+02  3.6247236769e+02  0.0000000000e+00 0. 9.
       21    -1     0     0   102   103  0.0000000000e+00  0.0000000000e+00 -1.8563554212e+03  1.8563554212e+03  0.0000000000e+00 0. 9.
        6     2     1     2   101     0 -2.4722776469e+02 -2.2975315025e+02  2.3669173553e+02  4.4737978838e+02  1.7383215958e+02  3.155372e-14 9.
       -6     2     1     2     0   103  2.4722776469e+02  2.2975315025e+02 -1.7305747890e+03  1.7714480005e+03  1.7097029092e+02  9.944778e-14 9.
       24     2     3     0     0     0 -2.4864104220e+02 -1.7228195291e+02  1.6063080398e+02  3.5191649080e+02  8.0867311998e+01  3.664254e-14 9.
        5     1     3     0   101     0  1.4132775040e+00 -5.7471197332e+01  7.6060931553e+01  9.5463297580e+01  4.8000000000e+00 0. 9.
      -24     2     4     0     0     0  1.3559567656e+02  9.0537273423e+01 -6.0150995232e+02  6.2835866499e+02  8.0232186510e+01  2.417657e-13 9.
       -5     1     4     0     0   103  1.1163208814e+02  1.3921587682e+02 -1.1290648367e+03  1.1430893355e+03  4.8000000000e+00 0. 9.
      -11     1     5     0     0     0 -8.7015592256e+01 -2.0325178971e+01  2.8918232178e+01  9.3920659859e+01  5.1100000000e-04 0. 9.
       12     1     5     0     0     0 -1.6162544994e+02 -1.5195677394e+02  1.3171257180e+02  2.5799583094e+02  0.0000000000e+00 0. 9.
        3     1     7     0   104     0  2.6040160836e+01  5.2264161643e+01 -2.9252119715e+02  2.9829269745e+02  5.0000000000e-01 0. 9.
       -4     1     7     0     0   104  1.0955551572e+02  3.8273111780e+01 -3.0898875517e+02  3.3006596754e+02  1.5000000000e+00 0. 9.
#pdf   21   21  5.576498e-02  2.855931e-01  3.783370e+02  1.611668e+00  1.008751e-01
</event>
<event>
    12  9999  1.000000e+00  2.320620e+02  7.901169e-03  1.038615e-01
       21    -1     0     0   101   102  0.0000000000e+00  0.0000000000e+00  9.8790929056e+02  9.8790929056e+02  0.0000000000e+00 0. 9.
       21    -1     0     0   103   101  0.0000000000e+00  0.0000000000e+00 -8.7839826850e+01  8.7839826850e+01  0.0000000000e+00 0. 9.
        6     2     1     2   103     0 -1.2907311664e+02  9.0509485032e+01  1.1847607457e+02  2.6037462785e+02  1.7001920557e+02  5.543326e-14 9.
       -6     2     1     2     0   102  1.2907311664e+02 -9.0509485032e+01  7.8159338913e+02  8.1537448955e+02  1.7057401900e+02  2.524343e-13 9.
       24     2     3     0     0     0 -1.0012515810e+02  2.8396733281e+01  1.1125717845e+01  1.3292613895e+02  8.1939947973e+01  1.174105e-14 9.
        5     1     3     0   103     0 -2.8947958542e+01  6.2112751751e+01  1.0735035673e+02  1.2744848890e+02  4.8000000000e+00 0. 9.
      -24     2     4     0     0     0  1.6748899549e+01  3.6032234466e+00  3.5417914388e+02  3.6351177956e+02  8.0027739315e+01  1.137687e-15 9.
       -5     1     4     0     0   102  1.1232421709e+02 -9.4112708478e+01  4.2741424525e+02  4.5186270999e+02  4.8000000000e+00 0. 9.
       -3     1     5     0     0   104 -3.5065071052e+01  4.3587512092e+01  3.0007116083e+01  6.3483127159e+01  5.0000000000e-01 0. 9.
        4     1     5     0   104     0 -6.5060087045e+01 -1.5190778811e+01 -1.8881398239e+01  6.9443011791e+01  1.5000000000e+00 0. 9.
        1     1     7     0   105     0  1.1488149716e+01  2.6978188719e+01  3.2230011543e+02  3.2363138531e+02  3.3000000000e-01 0. 9.
       -2     1     7     0     0   105  5.2607498332e+00 -2.3374965272e+01  3.1879028450e+01  3.9880394245e+01  3.3000000000e-01 0. 9.
#pdf   21   21  1.519860e-01  1.351382e-02  2.318585e+02  4.275141e-01  6.401230e+00
</event>
<event>
    12  9999  1.000000e+00  1.955219e+02  7.885690e-03  1.060265e-01
       21    -1     0     0   101   102  0.0000000000e+00  0.0000000000e+00  2.6921260745e+02  2.6921260745e+02  0.0000000000e+00 0. 9.
       21    -1     0     0   103   101  0.0000000000e+00  0.0000000000e+00 -1.5921178255e+02  1.5921178255e+02  0.0000000000e+00 0. 9.
        6     2     1     2   103     0  7.6053755425e+01 -5.5791841925e+01 -1.5494533287e+01  1.9586365627e+02  1.7095492958e+02  1.419970e-13 9.
       -6     2     1     2     0   102 -7.6053755425e+01  5.5791841925e+01  1.2549535819e+02  2.3256073372e+02  1.7157653279e+02  1.844562e-13 9.
       24     2     3     0     0     0 -1.3438961213e+01 -2.0729685768e+01  3.0602466172e+01  8.9157168724e+01  8.0013525411e+01  1.632274e-13 9.
        5     1     3     0   103     0  8.9492716637e+01 -3.5062156157e+01 -4.6096999459e+01  1.0670648755e+02  4.8000000000e+00 0. 9.
      -24     2     4     0     0     0 -1.1324776013e+02  6.9591572874e+01  1.0212297623e+02  1.8626672980e+02  8.1228998314e+01  1.381591e-13 9.
       -5     1     4     0     0   102  3.7194004709e+01 -1.3799730949e+01  2.3372381959e+01  4.6294003921e+01  4.8000000000e+00 0. 9.
       -3     1     5     0     0   104 -1.9789008804e+01 -4.6827714476e+01  3.4403338240e+00  5.0956114543e+01  5.0000000000e-01 0. 9.
        2     1     5     0   104     0  6.3500475919e+00  2.6098028708e+01  2.7162132348e+01  3.8201054181e+01  3.3000000000e-01 0. 9.
        1     1     7     0   105     0  1.1971372823e+01  3.7381812933e+00  1.4605363918e+00  1.2630511993e+01  3.3000000000e-01 0. 9.
       -2     1     7     0     0   105 -1.2521913296e+02  6.5853391581e+01  1.0066243984e+02  1.7363621781e+02  3.3000000000e-01 0. 9.
#pdf   21   21  4.141732e-02  2.449412e-02  1.952498e+02  2.323343e+00  3.856296e+00
</event>
<event>
    12  9999  1.000000e+00  1.754845e+02  7.875953e-03  1.074405e-01
       21    -1     0     0   101   102  0.0000000000e+00  0.0000000000e+00  3.7107953524e+02  3.7107953524e+02  0.0000000000e+00 0. 9.
       21    -1     0     0   103   101  0.0000000000e+00  0.0000000000e+00 -1.1927159914e+02  1.1927159914e+02  0.0000000000e+00 0. 9.
        6     2     1     2   103     0 -1.6460739308e+00  3.8863374202e+01 -9.0257257751e+00  1.7631121566e+02  1.7172975754e+02  3.294083e-14 9.
       -6     2     1     2     0   102  1.6460739308e+00 -3.8863374202e+01  2.6083366187e+02  3.1403991873e+02  1.7051041017e+02  2.661231e-14 9.
       24     2     3     0     0     0  5.5920147314e+01  4.5976045834e+01  2.2412348302e+01  1.1016098944e+02  7.9951676485e+01  2.735468e-14 9.
        5     1     3     0   103     0 -5.7566221245e+01 -7.1126716322e+00 -3.1438074077e+01  6.6150226211e+01  4.8000000000e+00 0. 9.
      -24     2     4     0     0     0  6.7871593756e+00  3.1741833770e+01  8.4085556573e+01  1.2358136975e+02  8.4548001641e+01  1.335292e-13 9.
       -5     1     4     0     0   102 -5.1410854448e+00 -7.0605207972e+01  1.7674810530e+02  1.9045854898e+02  4.8000000000e+00 0. 9.
       -1     1     5     0     0   104 -8.8084535038e+00  1.4965955506e+01  3.3307944979e+01  3.7564568094e+01  3.3000000000e-01 0. 9.
        2     1     5     0   104     0  6.4728600818e+01  3.1010090327e+01 -1.0895596677e+01  7.2596421350e+01  3.3000000000e-01 0. 9.
        1     1     7     0   105     0 -7.3235198116e+00 -4.1358431118e+00 -1.5032755563e+01  1.7228806705e+01  3.3000000000e-01 0. 9.
       -2     1     7     0     0   105  1.4110679187e+01  3.5877676882e+01  9.9118312135e+01  1.0635256304e+02  3.3000000000e-01 0. 9.
#pdf   21   21  5.708916e-02  1.834948e-02  1.748910e+02  1.656126e+00  4.977364e+00
</event>
<event>
    12  9999  1.000000e+00  1.866606e+02  7.881510e-03  1.066284e-01
       21    -1     0     0   101   102  0.0000000000e+00  0.0000000000e+00  6.5176145070e+02  6.5176145070e+02  0.0000000000e+00 0. 9.
       21    -1     0     0   103   101  0.0000000000e+00  0.0000000000e+00 -1.3636898940e+02  1.3636898940e+02  0.0000000000e+00 0. 9.
        6     2     1     2   103     0 -6.0036468180e+01  4.3473928778e+01 -4.9401734741e+01  1.9338768932e+02  1.7165053740e+02  6.602249e-14 9.
       -6     2     1     2     0   102  6.0036468180e+01 -4.3473928778e+01  5.6479419604e+02  5.9474275078e+02  1.7097396214e+02  2.785530e-14 9.
       24     2     3     0     0     0 -4.4711219984e+01  6.0027732031e+01 -9.3293752068e+01  1.4380502280e+02  7.9835697546e+01  4.165002e-14 9.
        5     1     3     0   103     0 -1.5325248196e+01 -1.6553803254e+01  4.3892017326e+01  4.9582666522e+01  4.8000000000e+00 0. 9.
      -24     2     4     0     0     0  5.0985991065e+01 -8.2963244665e+01  5.1537103470e+02  5.3065682345e+02  8.0665293724e+01  8.835604e-16 9.
       -5     1     4     0     0   102  9.0504771151e+00  3.9489315888e+01  4.9423161336e+01  6.4085927330e+01  4.8000000000e+00 0. 9.
      -11     1     5     0     0     0  1.5385073842e+01  4.4294337149e+01 -4.6439679596e+01  6.5994944062e+01  5.1100000000e-04 0. 9.
       12     1     5     0     0     0 -6.0096293826e+01  1.5733394883e+01 -4.6854072472e+01  7.7810078739e+01  0.0000000000e+00 0. 9.
        1     1     7     0   104     0  3.2986411014e+01  7.5656682483e+00  1.2256696463e+02  1.2715389246e+02  3.3000000000e-01 0. 9.
       -2     1     7     0     0   104  1.7999580051e+01 -9.0528912914e+01  3.9280407007e+02  4.0350293099e+02  3.3000000000e-01 0. 9.
#pdf   21   21  1.002710e-01  2.097984e-02  1.863504e+02  8.207850e-01  4.430952e+00
</event>
<event>
    12  9999  1.000000e+00  1.998543e+02  7.887667e-03  1.057445e-01
       21    -1     0     0   101   102  0.0000000000e+00  0.0000000000e+00  1.3140757524e+02  1.3140757524e+02  0.0000000000e+00 0. 9.
       21    -1     0     0   103   101  0.0000000000e+00  0.0000000000e+00 -3.3247465619e+02  3.3247465619e+02  0.0000000000e+00 0. 9.
        6     2     1     2   103     0  7.7011691299e+01  6.8851375042e+01 -1.6832683479e+02  2.6106444666e+02  1.7073198165e+02  2.073721e-13 9.
       -6     2     1     2     0   102 -7.7011691299e+01 -6.8851375042e+01 -3.2740246157e+01  2.0281778477e+02  1.7144042015e+02  4.718282e-14 9.
       24     2     3     0     0     0  7.8181655245e+01  6.1389012918e+01 -4.3290341840e+01  1.3570807374e+02  8.1618903794e+01  1.143067e-14 9.
        5     1     3     0   103     0 -1.1699639453e+00  7.4623621239e+00 -1.2503649295e+02  1.2535637293e+02  4.8000000000e+00 0. 9.
      -24     2     4     0     0     0 -7.9750356613e+01 -1.0347051187e+02 -5.2128503382e+01  1.6275621415e+02  8.1889792849e+01  4.634105e-15 9.
       -5     1     4     0     0   102  2.7386653141e+00  3.4619136830e+01  1.9388257225e+01  4.0061570623e+01  4.8000000000e+00 0. 9.
       -1     1     5     0     0   104  3.6967271004e+01  2.3025110105e+01 -6.2531520609e+01  7.6203902725e+01  3.3000000000e-01 0. 9.
        2     1     5     0   104     0  4.1214384240e+01  3.8363902813e+01  1.9241178768e+01  5.9504171011e+01  3.3000000000e-01 0. 9.
        1     1     7     0   105     0 -5.4250342268e+00 -5.1775053570e+01  9.9227252302e+00  5.2996759755e+01  3.3000000000e-01 0. 9.
       -2     1     7     0     0   105 -7.4325322387e+01 -5.1695458302e+01 -6.2051228613e+01  1.0975945440e+02  3.3000000000e-01 0. 9.
#pdf   21   21  2.021655e-02  5.114995e-02  1.995513e+02  4.570712e+00  1.854497e+00
</event>
<event>
    12  9999  1.000000e+00  1.723797e+02  7.874348e-03  1.076776e-01
       21    -1     0     0   101   102  0.0000000000e+00  0.0000000000e+00  4.3765567605e+02  4.3765567605e+02  0.0000000000e+00 0. 9.
       21    -1     0     0   102   103  0.0000000000e+00  0.0000000000e+00 -1.0412194732e+02  1.0412194732e+02  0.0000000000e+00 0. 9.
        6     2     1     2   101     0  2.1492916550e+01  3.8100008238e+00  3.2651770107e+02  3.6920225212e+02  1.7093867992e+02  1.461232e-13 9.
       -6     2     1     2     0   103 -2.1492916550e+01 -3.8100008238e+00  7.0160276539e+00  1.7257537125e+02  1.7104552771e+02  3.565501e-13 9.
       24     2     3     0     0     0 -2.3457156009e+01  2.9956960055e+01  8.8698974835e+01  1.2571722374e+02  8.0558392388e+01  1.040904e-13 9.
        5     1     3     0   101     0  4.4950072558e+01 -2.6146959232e+01  2.3781872623e+02  2.4348502838e+02  4.8000000000e+00 0. 9.
      -24     2     4     0     0     0  3.8757297801e+01 -2.3267211248e+01 -3.2114744518e+01  9.7990327858e+01  8.0791436960e+01  1.593007e-14 9.
       -5     1     4     0     0   103 -6.0250214351e+01  1.9457210425e+01  3.9130772172e+01  7.4585043391e+01  4.8000000000e+00 0. 9.
       -1     1     5     0     0   104 -1.0174889369e+01  2.3838655394e+01  1.0242744162e+02  1.0565651689e+02  3.3000000000e-01 0. 9.
        2     1     5     0   104     0 -1.3282266640e+01  6.1183046610e+00 -1.3728466785e+01  2.0060706849e+01  3.3000000000e-01 0. 9.
        3     1     7     0   105     0  1.2420536592e+01 -3.8159255180e+01  1.4266291337e+01  4.2593139748e+01  5.0000000000e-01 0. 9.
       -4     1     7     0     0   105  2.6336761209e+01  1.4892043931e+01 -4.6381035855e+01  5.5397188110e+01  1.5000000000e+00 0. 9.
#pdf   21   21  6.733164e-02  1.601876e-02  1.723267e+02  1.370547e+00  5.576870e+00
</event>
<event>
    12  9999  1.000000e+00  3.265965e+02  7.932224e-03  9.980036e-02
       21    -1     0     0   101   102  0.0000000000e+00  0.0000000000e+00  2.5142885926e+02  2.5142885926e+02  0.0000000000e+00 0. 9.
       21    -1     0     0   103   101  0.0000000000e+00  0.0000000000e+00 -4.8620808304e+02  4.8620808304e+02  0.0000000000e+00 0. 9.
        6     2     1     2   103     0 -1.0619180891e+02 -2.5704013351e+02 -2.4903117410e+02  4.1062839098e+02  1.7103455584e+02  2.130806e-13 9.
       -6     2     1     2     0   102  1.0619180891e+02  2.5704013351e+02  1.4251950321e+01  3.2700855132e+02  1.7142095566e+02  3.727142e-13 9.
       24     2     3     0     0     0 -7.9683635067e+01 -1.3904741137e+02 -6.4630253747e+01  1.9005707557e+02  7.9126215417e+01  2.037008e-14 9.
        5     1     3     0   103     0 -2.6508173844e+01 -1.1799272213e+02 -1.8440092035e+02  2.2057131541e+02  4.8000000000e+00 0. 9.
      -24     2     4     0     0     0  8.7088193503e+01  1.6381826216e+02 -5.4664120396e+01  2.0941718165e+02  8.0290805491e+01  3.247102e-14 9.
       -5     1     4     0     0   102  1.9103615408e+01  9.3221871348e+01  6.8916070717e+01  1.1759136968e+02  4.8000000000e+00 0. 9.
      -11     1     5     0     0     0 -2.5865789028e+00 -5.0271156472e+00  1.5080473239e+01  1.6105370394e+01  5.1100000000e-04 0. 9.
       12     1     5     0     0     0 -7.7097056164e+01 -1.3402029573e+02 -7.9710726986e+01  1.7395170517e+02  0.0000000000e+00 0. 9.
        1     1     7     0   104     0  2.2826109062e+01  1.8109772255e+01  1.8128984741e+01  3.4318567770e+01  3.3000000000e-01 0. 9.
       -2     1     7     0     0   104  6.4262084441e+01  1.4570848990e+02 -7.2793105136e+01  1.7509861388e+02  3.3000000000e-01 0. 9.
#pdf   21   21  3.868136e-02  7.480124e-02  3.264953e+02  2.425983e+00  1.143221e+00
</event>
<event>
    12  9999  1.000000e+00  2.585252e+02  7.910956e-03  1.025424e-01
       21    -1     0     0   101   102  0.0000000000e+00  0.0000000000e+00  2.3012639749e+02  2.3012639749e+02  0.0000000000e+00 0. 9.
       21    -1     0     0   102   103  0.0000000000e+00  0.0000000000e+00 -2.9042935417e+02  2.9042935417e+02  0.0000000000e+00 0. 9.
        6     2     1     2   101     0 -1.4713114172e+02 -1.2597319314e+02 -3.0480877573e+01  2.6009804107e+02  1.7089496428e+02  1.368932e-13 9.
       -6     2     1     2     0   103  1.4713114172e+02  1.2597319314e+02 -2.9822079111e+01  2.6045771059e+02  1.7155769977e+02  2.400427e-13 9.
       24     2     3     0     0     0 -8.1134161255e+01 -1.7581076596e+01 -6.0189932069e+01  1.2967518924e+02  7.9378715069e+01  1.839837e-14 9.
        5     1     3     0   101     0 -6.5996980466e+01 -1.0839211654e+02  2.9709054496e+01  1.3042285182e+02  4.8000000000e+00 0. 9.
      -24     2     4     0     0     0  1.6710028774e+02  9.7735781238e+01 -5.8381789965e+01  2.1534878345e+02  7.4107192873e+01  5.452467e-14 9.
       -5     1     4     0     0   103 -1.9969146022e+01  2.8237411898e+01  2.8559710854e+01  4.5108927139e+01  4.8000000000e+00 0. 9.
       -1     1     5     0     0   104 -9.4257112384e+01 -2.6342712320e+00 -5.4813051437e+01  1.0906842865e+02  3.3000000000e-01 0. 9.
        2     1     5     0   104     0  1.3122951129e+01 -1.4946805364e+01 -5.3768806323e+00  2.0606760596e+01  3.3000000000e-01 0. 9.
       15     1     7     0     0     0  7.9859014480e+01  4.5637140760e+01  1.0492564535e+01  9.2592990071e+01  1.7768200000e+00  3.207756e-02 9.
      -16     1     7     0     0     0  8.7241273263e+01  5.2098640478e+01 -6.8874354499e+01  1.2275579338e+02  0.0000000000e+00 0. 9.
#pdf   21   21  3.540406e-02  4.468144e-02  2.583058e+02  2.685894e+00  2.111784e+00
</event>
<event>
    12  9999  1.000000e+00  1.735660e+02  7.874965e-03  1.075864e-01
       21    -1     0     0   101   102  0.0000000000e+00  0.0000000000e+00  2.2526916524e+03  2.2526916524e+03  0.0000000000e+00 0. 9.
       21    -1     0     0   102   103  0.0000000000e+00  0.0000000000e+00 -1.3755888579e+01  1.3755888579e+01  0.0000000000e+00 0. 9.
        6     2     1     2   101     0  1.9932972297e+01  1.3117383180e+01  1.3049310180e+03  1.3163483192e+03  1.7134335892e+02  4.186153e-14 9.
       -6     2     1     2     0   103 -1.9932972297e+01 -1.3117383180e+01  9.3400474586e+02  9.5009922180e+02  1.7249428063e+02  2.126371e-13 9.
       24     2     3     0     0     0 -4.3549205255e+01 -1.3229181322e+01  4.8942326994e+02  4.9793518670e+02  7.9578693643e+01  6.434746e-15 9.
        5     1     3     0   101     0  6.3482177551e+01  2.6346564503e+01  8.1550774805e+02  8.1841313250e+02  4.8000000000e+00 0. 9.
      -24     2     4     0     0     0 -8.6717837440e+00 -5.7576490796e+01  3.2745253042e+02  3.4179661892e+02  7.8800487938e+01  5.390279e-14 9.
       -5     1     4     0     0   103 -1.1261188553e+01  4.4459107616e+01  6.0655221544e+02  6.0830260289e+02  4.8000000000e+00 0. 9.
       -3     1     5     0     0   104 -6.3027419300e+01 -1.6952201261e+01  4.3734947001e+02  4.4219299138e+02  5.0000000000e-01 0. 9.
        4     1     5     0   104     0  1.9478214046e+01  3.7230199388e+00  5.2073799933e+01  5.5742195322e+01  1.5000000000e+00 0. 9.
        1     1     7     0   105     0 -3.5017460724e+01 -4.0333668269e-01  1.1541290599e+02  1.2060942337e+02  3.3000000000e-01 0. 9.
       -2     1     7     0     0   105  2.6345676980e+01 -5.7173154114e+01  2.1203962443e+02  2.2118719555e+02  3.3000000000e-01 0. 9.
#pdf   21   21  3.465679e-01  2.116291e-03  1.729969e+02  6.546698e-02  2.356855e+01
</event>
<event>
    12  9999  1.000000e+00  1.775377e+02  7.877000e-03  1.072865e-01
       21    -1     0     0   101   102  0.0000000000e+00  0.0000000000e+00  1.2000500554e+02  1.2000500554e+02  0.0000000000e+00 0. 9.
       21    -1     0     0   103   101  0.0000000000e+00  0.0000000000e+00 -2.9413334205e+02  2.9413334205e+02  0.0000000000e+00 0. 9.
        6     2     1     2   103     0  3.2783564128e+01  3.5165803796e+01 -1.5458774836e+02  2.3503471211e+02  1.7038940143e+02  1.033124e-13 9.
       -6     2     1     2     0   102 -3.2783564128e+01 -3.5165803796e+01 -1.9540588148e+01  1.7910363548e+02  1.7142019083e+02  6.710768e-15 9.
       24     2     3     0     0     0 -6.1937378374e-01  6.8163910828e+01 -1.5549448073e+02  1.8782779003e+02  8.0337057491e+01  1.081558e-13 9.
        5     1     3     0   103     0  3.3402937912e+01 -3.2998107032e+01  9.0673237171e-01  4.7206922082e+01  4.8000000000e+00 0. 9.
      -24     2     4     0     0     0  3.6526615481e+01 -1.7648576728e+01 -4.9223738432e+01  1.0154795450e+02  7.9014838723e+01  1.943997e-14 9.
       -5     1     4     0     0   102 -6.9310179609e+01 -1.7517227068e+01  2.9683150283e+01  7.7555680980e+01  4.8000000000e+00 0. 9.
       -3     1     5     0     0   104  3.3405206519e+01  3.4024297821e+01 -1.1626469837e+02  1.2566340259e+02  5.0000000000e-01 0. 9.
        4     1     5     0   104     0 -3.4024580302e+01  3.4139613007e+01 -3.9229782363e+01  6.2164387436e+01  1.5000000000e+00 0. 9.
        3     1     7     0   105     0 -4.7535819503e+00 -4.1002258011e+01 -2.5158858118e+01  4.8342526260e+01  5.0000000000e-01 0. 9.
       -4     1     7     0     0   105  4.1280197431e+01  2.3353681283e+01 -2.4064880313e+01  5.3205428237e+01  1.5000000000e+00 0. 9.
#pdf   21   21  1.846231e-02  4.525128e-02  1.770422e+02  4.950945e+00  2.129912e+00
</event>
<event>
    12  9999  1.000000e+00  1.805495e+02  7.878513e-03  1.070647e-01
       21    -1     0     0   101   102  0.0000000000e+00  0.0000000000e+00  7.8158956592e+01  7.8158956592e+01  0.0000000000e+00 0. 9.
       21    -1     0     0   103   101  0.0000000000e+00  0.0000000000e+00 -6.0334877962e+02  6.0334877962e+02  0.0000000000e+00 0. 9.
        6     2     1     2   103     0 -4.2054675682e+01 -4.0495980405e+01 -4.5157248796e+02  4.8619726363e+02  1.7047447640e+02  4.629398e-13 9.
       -6     2     1     2     0   102  4.2054675682e+01  4.0495980405e+01 -7.3617335072e+01  1.9531047258e+02  1.7122543182e+02  4.935368e-14 9.
       24     2     3     0     0     0  6.4747201188e+00 -6.8928323040e+01 -3.8142603866e+02  3.9615802377e+02  8.1623042798e+01  6.038996e-14 9.
        5     1     3     0   103     0 -4.8529395801e+01  2.8432342635e+01 -7.0146449297e+01  9.0039239854e+01  4.8000000000e+00 0. 9.
      -24     2     4     0     0     0 -4.2708479359e+01 -1.8559983152e+00 -4.0799654377e+01  9.4918626700e+01  7.4279707581e+01  1.017838e-13 9.
       -5     1     4     0     0   102  8.4763155041e+01  4.2351978720e+01 -3.2817680695e+01  1.0039184589e+02  4.8000000000e+00 0. 9.
      -15     1     5     0     0     0 -2.0248225088e+01 -3.9104412897e+01 -7.3959940311e+01  8.6095154262e+01  1.7768200000e+00  1.824598e-03 9.
       16     1     5     0     0     0  2.6722945207e+01 -2.9823910143e+01 -3.0746609835e+02  3.1006286951e+02  0.0000000000e+00 0. 9.
       15     1     7     0     0     0 -2.0022078234e+00 -2.1770153358e+01 -4.4335459838e+01  4.9464517604e+01  1.7768200000e+00  1.090621e-01 9.
      -16     1     7     0     0     0 -4.0706271536e+01  1.9914155043e+01  3.5358054613e+00  4.5454109096e+01  0.0000000000e+00 0. 9.
#pdf   21   21  1.202445e-02  9.282289e-02  1.801945e+02  7.027814e+00  9.136775e-01
</event>
<event>
    12  9999  1.000000e+00  2.146595e+02  7.894119e-03  1.048353e-01
       21    -1     0     0   101   102  0.0000000000e+00  0.0000000000e+00  5.1355002284e+01  5.1355002284e+01  0.0000000000e+00 0. 9.
       21    -1     0     0   103   101  0.0000000000e+00  0.0000000000e+00 -8.9893570685e+02  8.9893570685e+02  0.0000000000e+00 0. 9.
        6     2     1     2   103     0  6.7281420369e+01  1.1324364710e+02 -4.0489433665e+02  4.5864856271e+02  1.7049389165e+02  3.921913e-14 9.
       -6     2     1     2     0   102 -6.7281420369e+01 -1.1324364710e+02 -4.4268636792e+02  4.9164214643e+02  1.6849292764e+02  3.166933e-13 9.
       24     2     3     0     0     0 -2.2658057595e+01  7.4351715782e+01 -1.3762581390e+02  1.7394310918e+02  7.2620764008e+01  2.933428e-14 9.
        5     1     3     0   103     0  8.9939477965e+01  3.8891931315e+01 -2.6726852275e+02  2.8470545353e+02  4.8000000000e+00 0. 9.
      -24     2     4     0     0     0 -8.5899392686e+01 -5.0510563072e+01 -1.7640914259e+02  2.1740015574e+02  7.8820171796e+01  4.302056e-14 9.
       -5     1     4     0     0   102  1.8617972317e+01 -6.2733084026e+01 -2.6627722533e+02  2.7424199069e+02  4.8000000000e+00 0. 9.
      -15     1     5     0     0     0  5.8758005826e+00 -1.1263966061e+01 -5.5437896968e+00  1.3974714932e+01  1.7768200000e+00  1.109110e-02 9.
       16     1     5     0     0     0 -2.8533858178e+01  8.5615681843e+01 -1.3208202420e+02  1.5996839424e+02  0.0000000000e+00 0. 9.
        1     1     7     0   104     0 -6.5642510880e+01 -4.2395364655e+01 -1.7910496822e+02  1.9540983783e+02  3.3000000000e-01 0. 9.
       -2     1     7     0     0   104 -2.0256881806e+01 -8.1151984164e+00  2.6958256374e+00  2.1990317908e+01  3.3000000000e-01 0. 9.
#pdf   21   21  7.900770e-03  1.382978e-01  2.138709e+02  9.709136e+00  5.037932e-01
</event>
<event>
    12  9999  1.000000e+00  2.097416e+02  7.892025e-03  1.051284e-01
       21    -1     0     0   101   102  0.0000000000e+00  0.0000000000e+00  2.5372810525e+02  2.5372810525e+02  0.0000000000e+00 0. 9.
       21    -1     0     0   103   101  0.0000000000e+00  0.0000000000e+00 -2.0958467826e+02  2.0958467826e+02  0.0000000000e+00 0. 9.
        6     2     1     2   103     0 -6.5850287882e+01 -1.0200756812e+02 -7.4199129322e+01  2.2259345170e+02  1.7117397460e+02  4.341572e-14 9.
       -6     2     1     2     0   102  6.5850287882e+01  1.0200756812e+02  1.1834255631e+02  2.4071933181e+02  1.7087724162e+02  4.847076e-13 9.
       24     2     3     0     0     0  1.4791616142e+01 -5.8618757433e+01  5.2899785893e+00  1.0123751302e+02  8.1031472516e+01  5.286196e-14 9.
        5     1     3     0   103     0 -8.0641904024e+01 -4.3388810682e+01 -7.9489107911e+01  1.2135593868e+02  4.8000000000e+00 0. 9.
      -24     2     4     0     0     0  8.7390269648e+01  1.2876727183e+02  1.0452651134e+02  2.0338334841e+02  7.8872842694e+01  5.283244e-13 9.
       -5     1     4     0     0   102 -2.1539981766e+01 -2.6759703715e+01  1.3816044966e+01  3.7335983393e+01  4.8000000000e+00 0. 9.
       -1     1     5     0     0   104  2.2795602218e+01  5.1651091822e+00 -2.1343347325e+01  3.1653834023e+01  3.3000000000e-01 0. 9.
        2     1     5     0   104     0 -8.0039860767e+00 -6.3783866616e+01  2.6633325914e+01  6.9583678997e+01  3.3000000000e-01 0. 9.
        3     1     7     0   105     0  9.6232862365e+01  8.0924557977e+01  7.7622322997e+01  1.4776678554e+02  5.0000000000e-01 0. 9.
       -4     1     7     0     0   105 -8.8425927165e+00  4.7842713854e+01  2.6904188344e+01  5.5616562869e+01  1.5000000000e+00 0. 9.
#pdf   21   21  3.903509e-02  3.224380e-02  2.096207e+02  2.459453e+00  2.973246e+00
</event>
<event>
    12  9999  1.000000e+00  1.811341e+02  7.878804e-03  1.070222e-01
       21    -1     0     0   101   102  0.0000000000e+00  0.0000000000e+00  2.2938895709e+02  2.2938895709e+02  0.0000000000e+00 0. 9.
       21    -1     0     0   102   103  0.0000000000e+00  0.0000000000e+00 -1.4698026525e+02  1.4698026525e+02  0.0000000000e+00 0. 9.
        6     2     1     2   101     0  4.5562152126e+01 -4.8287851600e+01  7.1445189704e+01  1.9256851114e+02  1.6604394007e+02  1.610855e-13 9.
       -6     2     1     2     0   103 -4.5562152126e+01  4.8287851600e+01  1.0963502136e+01  1.8380071120e+02  1.7104057045e+02  4.206910e-13 9.
       24     2     3     0     0     0  3.6044321148e+01 -6.9928744846e+01  1.0353908791e+02  1.5241909435e+02  7.9511100812e+01  8.278628e-15 9.
        5     1     3     0   101     0  9.5178309778e+00  2.1640893246e+01 -3.2093898209e+01  4.0149416798e+01  4.8000000000e+00 0. 9.
      -24     2     4     0     0     0  8.4248324395e+00  6.3698943573e+01  5.1131398086e+01  1.1460102822e+02  7.9940243845e+01  2.046303e-13 9.
       -5     1     4     0     0   103 -5.3986984565e+01 -1.5411091972e+01 -4.0167895950e+01  6.9199682971e+01  4.8000000000e+00 0. 9.
       -3     1     5     0     0   104 -2.7910853813e+00 -4.3220298397e+01  5.5422657549e+00  4.3666360747e+01  5.0000000000e-01 0. 9.
        4     1     5     0   104     0  3.8835406529e+01 -2.6708446448e+01  9.7996822159e+01  1.0875273360e+02  1.5000000000e+00 0. 9.
       11     1     7     0     0     0  3.0926095452e+01 -8.3310116613e-01  2.9929835780e+01  4.3045470233e+01  5.1100000000e-04 0. 9.
      -12     1     7     0     0     0 -2.2501263013e+01  6.4532044739e+01  2.1201562307e+01  7.1555557992e+01  0.0000000000e+00 0. 9.
#pdf   21   21  3.529061e-02  2.261235e-02  1.788245e+02  2.740747e+00  4.151268e+00
</event>
<event>
    12  9999  1.000000e+00  2.213092e+02  7.896877e-03  1.044520e-01
       21    -1     0     0   101   102  0.0000000000e+00  0.0000000000e+00  7.5574846649e+01  7.5574846649e+01  0.0000000000e+00 0. 9.
       21    -1     0     0   102   103  0.0000000000e+00  0.0000000000e+00 -7.5929979698e+02  7.5929979698e+02  0.0000000000e+00 0. 9.
        6     2     1     2   101     0  4.3491581887e+01  1.3463648904e+02 -1.8173327534e+02  2.8615399129e+02  1.6981937901e+02  1.532732e-13 9.
       -6     2     1     2     0   103 -4.3491581887e+01 -1.3463648904e+02 -5.0199167499e+02  5.4872065234e+02  1.7052920767e+02  4.470142e-13 9.
       24     2     3     0     0     0 -7.3098715718e+00  1.4669217511e+02 -1.1959428890e+02  2.0484949648e+02  7.8028801163e+01  1.287360e-13 9.
        5     1     3     0   101     0  5.0801453458e+01 -1.2055686067e+01 -6.2138986439e+01  8.1304494806e+01  4.8000000000e+00 0. 9.
      -24     2     4     0     0     0 -4.2089016239e+01 -1.6245864022e+02 -3.6767938661e+02  4.1146588887e+02  7.7147594206e+01  3.048990e-13 9.
       -5     1     4     0     0   103 -1.4025656473e+00  2.7822151181e+01 -1.3431228838e+02  1.3725476347e+02  4.8000000000e+00 0. 9.
       -3     1     5     0     0   104  3.1675421114e+01  8.8906116889e+01 -5.2088135771e+01  1.0780099170e+02  5.0000000000e-01 0. 9.
        4     1     5     0   104     0 -3.8985292686e+01  5.7786058218e+01 -6.7506153134e+01  9.7048504785e+01  1.5000000000e+00 0. 9.
        3     1     7     0   105     0  4.0499501416e+00 -1.0184954209e+02 -2.6246859954e+02  2.8156659437e+02  5.0000000000e-01 0. 9.
       -4     1     7     0     0   105 -4.6138966381e+01 -6.0609098127e+01 -1.0521078707e+02  1.2989929450e+02  1.5000000000e+00 0. 9.
#pdf   21   21  1.162690e-02  1.168154e-01  2.210365e+02  7.222425e+00  6.487212e-01
</event>
<event>
    12  9999  1.000000e+00  2.027457e+02  7.888963e-03  1.055605e-01
       21    -1     0     0   101   102  0.0000000000e+00  0.0000000000e+00  4.4449999852e+01  4.4449999852e+01  0.0000000000e+00 0. 9.
       21    -1     0     0   102   103  0.0000000000e+00  0.0000000000e+00 -1.0807864260e+03  1.0807864260e+03  0.0000000000e+00 0. 9.
        6     2     1     2   101     0  2.1541537468e+01 -1.0580687218e+02 -3.0016071236e+02  3.6112399405e+02  1.6927774158e+02  9.750888e-13 9.
       -6     2     1     2     0   103 -2.1541537468e+01  1.0580687218e+02 -7.3617571375e+02  7.6411243176e+02  1.7393675525e+02  7.457307e-14 9.
       24     2     3     0     0     0 -1.5724494881e+01 -1.2693319521e+02 -1.8286983057e+02  2.3616292153e+02  7.7280364838e+01  1.752628e-13 9.
        5     1     3     0   101     0  3.7266032349e+01  2.1126323035e+01 -1.1729088179e+02  1.2496107251e+02  4.8000000000e+00 0. 9.
      -24     2     4     0     0     0  4.3365763265e+01  3.1582550888e+01 -2.6160143224e+02  2.7937951950e+02  8.2094820935e+01  4.014639e-14 9.
       -5     1     4     0     0   103 -6.4907300733e+01  7.4224321290e+01 -4.7457428151e+02  4.8473291226e+02  4.8000000000e+00 0. 9.
      -11     1     5     0     0     0 -4.5634135991e+01 -9.5615774908e+01 -1.2438953818e+02  1.6339402678e+02  5.1100000000e-04 0. 9.
       12     1     5     0     0     0  2.9909641110e+01 -3.1317420304e+01 -5.8480292383e+01  7.2768894749e+01  0.0000000000e+00 0. 9.
        1     1     7     0   104     0  5.4315013898e+01  4.6976555643e+01 -2.4079264651e+02  2.5127300895e+02  3.3000000000e-01 0. 9.
       -2     1     7     0     0   104 -1.0949250634e+01 -1.5394004755e+01 -2.0808785731e+01  2.8106510552e+01  3.3000000000e-01 0. 9.
#pdf   21   21  6.838462e-03  1.662748e-01  2.007837e+02  1.078166e+01  3.747317e-01
</event>
<event>
    12  9999  1.000000e+00  1.721535e+02  7.874230e-03  1.076951e-01
       21    -1     0     0   101   102  0.0000000000e+00  0.0000000000e+00  8.5293615211e+02  8.5293615211e+02  0.0000000000e+00 0. 9.
       21    -1     0     0   103   101  0.0000000000e+00  0.0000000000e+00 -1.2089415991e+02  1.2089415991e+02  0.0000000000e+00 0. 9.
        6     2     1     2   103     0  3.4338055459e+01  1.8352905220e+01 -4.6664924799e+01  1.7571285901e+02  1.6486801519e+02  1.007816e-13 9.
       -6     2     1     2     0   102 -3.4338055459e+01 -1.8352905220e+01  7.7870691700e+02  7.9811745300e+02  1.7056105952e+02  4.602993e-13 9.
       24     2     3     0     0     0  8.2594553107e-01  5.9017630141e+01  1.1207904196e+01  9.7297390508e+01  7.6533667295e+01  1.911033e-14 9.
        5     1     3     0   103     0  3.3512109928e+01 -4.0664724922e+01 -5.7872828995e+01  7.8415468504e+01  4.8000000000e+00 0. 9.
      -24     2     4     0     0     0 -4.7932504926e+01 -7.1674842438e+01  4.5694551118e+02  4.7164926111e+02  7.8860745933e+01  1.238497e-13 9.
       -5     1     4     0     0   102  1.3594449467e+01  5.3321937219e+01  3.2176140582e+02  3.2646819190e+02  4.8000000000e+00 0. 9.
      -13     1     5     0     0     0  5.2051910264e+00  6.4176096402e+01  3.4496423195e+01  7.3045737318e+01  1.0566000000e-01  7.166475e+05 9.
       14     1     5     0     0     0 -4.3792454953e+00 -5.1584662609e+00 -2.3288518999e+01  2.4251653190e+01  0.0000000000e+00 0. 9.
        1     1     7     0   104     0  1.5112717705e+01  6.4700787464e+00  6.3851611058e+01  6.5934765414e+01  3.3000000000e-01 0. 9.
       -2     1     7     0     0   104 -6.3045222631e+01 -7.8144921184e+01  3.9309390012e+02  4.0571449569e+02  3.3000000000e-01 0. 9.
#pdf   21   21  1.312209e-01  1.859910e-02  1.694031e+02  5.630628e-01  4.922081e+00
</event>
<event>
    12  9999  1.000000e+00  2.225974e+02  7.897401e-03  1.043794e-01
       21    -1     0     0   101   102  0.0000000000e+00  0.0000000000e+00  1.1222237316e+02  1.1222237316e+02  0.0000000000e+00 0. 9.
       21    -1     0     0   103   101  0.0000000000e+00  0.0000000000e+00 -7.5439144948e+02  7.5439144948e+02  0.0000000000e+00 0. 9.
        6     2     1     2   103     0  1.3306895919e+02  5.1775660402e+01 -6.0025851276e+02  6.4025661490e+02  1.7096837097e+02  3.724743e-14 9.
       -6     2     1     2     0   102 -1.3306895919e+02 -5.1775660402e+01 -4.1910563563e+01  2.2635720774e+02  1.7056677064e+02  7.014644e-14 9.
       24     2     3     0     0     0  6.4302083079e+01 -2.4887546453e+01 -1.9572057729e+02  2.2278791935e+02  8.1078756611e+01  5.381564e-17 9.
        5     1     3     0   103     0  6.8766876109e+01  7.6663206855e+01 -4.0453793547e+02  4.1746869555e+02  4.8000000000e+00 0. 9.
      -24     2     4     0     0     0 -1.4881941113e+02 -5.9386395603e+01  1.7645663309e+00  1.7906495681e+02  7.9919859559e+01  1.227011e-13 9.
       -5     1     4     0     0   102  1.5750451938e+01  7.6107352010e+00 -4.3675129894e+01  4.7292250928e+01  4.8000000000e+00 0. 9.
      -11     1     5     0     0     0 -9.4987665927e+00 -1.8992221442e+01 -9.7521622955e+01  9.9806803306e+01  5.1100000000e-04 0. 9.
       12     1     5     0     0     0  7.3800849672e+01 -5.8953250105e+00 -9.8198954339e+01  1.2298111604e+02  0.0000000000e+00 0. 9.
        3     1     7     0   104     0 -4.0924147161e+01 -2.8018397248e+01  3.6347231876e+01  6.1491362566e+01  5.0000000000e-01 0. 9.
       -4     1     7     0     0   104 -1.0789526397e+02 -3.1367998355e+01 -3.4582665545e+01  1.1757359424e+02  1.5000000000e+00 0. 9.
#pdf   21   21  1.726498e-02  1.160602e-01  2.224435e+02  5.224781e+00  6.544293e-01
</event>
<event>
    12  9999  1.000000e+00  2.151261e+02  7.894315e-03  1.048079e-01
       21    -1     0     0   101   102  0.0000000000e+00  0.0000000000e+00  4.4499463833e+02  4.4499463833e+02  0.0000000000e+00 0. 9.
       21    -1     0     0   102   103  0.0000000000e+00  0.0000000000e+00 -1.0859434802e+02  1.0859434802e+02  0.0000000000e+00 0. 9.
        6     2     1     2   101     0 -3.2328443010e+01 -1.2650280170e+02  2.2520752717e+02  3.1151046278e+02  1.7109135297e+02  4.676283e-16 9.
       -6     2     1     2     0   103  3.2328443010e+01  1.2650280170e+02  1.1119276314e+02  2.4207852357e+02  1.7085108701e+02  1.727179e-14 9.
       24     2     3     0     0     0  2.7911081167e+01 -1.2589121847e+02  1.3533524347e+02  2.0320883913e+02  7.9690506564e+01  2.277666e-15 9.
        5     1     3     0   101     0 -6.0239524177e+01 -6.1158323138e-01  8.9872283704e+01  1.0830162365e+02  4.8000000000e+00 0. 9.
      -24     2     4     0     0     0 -2.7965768490e+01  1.2101639442e+02  5.1757098957e+01  1.5710128672e+02  8.1086158323e+01  5.193812e-14 9.
       -5     1     4     0     0   103  6.0294211500e+01  5.4864072831e+00  5.9435664186e+01  8.4977236849e+01  4.8000000000e+00 0. 9.
      -13     1     5     0     0     0  4.5743734267e+01 -3.2251046387e+01  4.4040018025e+01  7.1219053416e+01  1.0566000000e-01  3.942284e+04 9.
       14     1     5     0     0     0 -1.7832653100e+01 -9.3640172083e+01  9.1295225440e+01  1.3198978571e+02  0.0000000000e+00 0. 9.
       11     1     7     0     0     0  9.1531558749e+00  2.4697815929e+01 -1.8543621858e+01  3.2212238140e+01  5.1100000000e-04 0. 9.
      -12     1     7     0     0     0 -3.7118924365e+01  9.6318578490e+01  7.0300720815e+01  1.2488904858e+02  0.0000000000e+00 0. 9.
#pdf   21   21  6.846071e-02  1.670682e-02  2.150307e+02  1.320318e+00  5.374566e+00
</event>
<event>
    12  9999  1.000000e+00  1.782387e+02  7.877354e-03  1.072345e-01
       21    -1     0     0   101   102  0.0000000000e+00  0.0000000000e+00  8.1942991496e+01  8.1942991496e+01  0.0000000000e+00 0. 9.
       21    -1     0     0   102   103  0.0000000000e+00  0.0000000000e+00 -3.9852618635e+02  3.9852618635e+02  0.0000000000e+00 0. 9.
        6     2     1     2   101     0  2.9237640053e+01  4.0049695246e+01 -1.1885823328e+02  2.1439517081e+02  1.7140359378e+02  7.439902e-14 9.
       -6     2     1     2     0   103 -2.9237640053e+01 -4.0049695246e+01 -1.9772496157e+02  2.6607400704e+02  1.7100116698e+02  1.704528e-14 9.
       24     2     3     0     0     0  6.4126039376e+01  6.5916146023e+01 -4.8565127788e+01  1.3162781998e+02  8.0685959885e+01  2.212895e-14 9.
        5     1     3     0   101     0 -3.4888399323e+01 -2.5866450777e+01 -7.0293105496e+01  8.2767350830e+01  4.8000000000e+00 0. 9.
      -24     2     4     0     0     0  3.8924883801e+01  1.3871086571e+01 -1.0046846270e+02  1.3555409690e+02  8.1076800429e+01  9.118919e-15 9.
       -5     1     4     0     0   103 -6.8162523854e+01 -5.3920781817e+01 -9.7256498869e+01  1.3051991014e+02  4.8000000000e+00 0. 9.
       -1     1     5     0     0   104  4.5801143837e+01  2.4124860829e+01  1.4522600278e+01  5.3765867477e+01  3.3000000000e-01 0. 9.
        2     1     5     0   104     0  1.8324895539e+01  4.1791285194e+01 -6.3087728066e+01  7.7861952501e+01  3.3000000000e-01 0. 9.
        3     1     7     0   105     0 -1.6215090884e+01 -2.0137444643e+01 -3.4242193027e+01  4.2909481848e+01  5.0000000000e-01 0. 9.
       -2     1     7     0     0   105  5.5139974685e+01  3.4008531214e+01 -6.6226269678e+01  9.2644615057e+01  3.3000000000e-01 0. 9.
#pdf   21   21  1.260661e-02  6.131172e-02  1.780455e+02  6.769814e+00  1.525166e+00
</event>
<event>
    12  9999  1.000000e+00  1.706333e+02  7.873432e-03  1.078165e-01
       -2    -1     0     0     0   101  0.0000000000e+00  0.0000000000e+00  1.4929182758e+02  1.4929182758e+02  0.0000000000e+00 0. 9.
        2    -1     0     0   102     0  0.0000000000e+00  0.0000000000e+00 -2.0466178270e+02  2.0466178270e+02  0.0000000000e+00 0. 9.
       -6     2     1     2     0   101  1.9987669909e+01 -1.2663127505e+01  1.1005558936e+01  1.6862992033e+02  1.6659851727e+02  2.134240e-14 9.
        6     2     1     2   102     0 -1.9987669909e+01  1.2663127505e+01 -6.6375514058e+01  1.8532368996e+02  1.7140390732e+02  1.935822e-13 9.
      -24     2     3     0     0     0  2.7322873229e+01 -6.7126910862e+01  8.5177627805e+00  1.1340910872e+02  8.6813087110e+01  1.048293e-13 9.
       -5     1     3     0     0   101 -7.3352033201e+00  5.4463783357e+01  2.4877961551e+00  5.5220811612e+01  4.8000000000e+00 0. 9.
       24     2     4     0     0     0  4.8467818091e+01  8.3829679637e+00 -7.3605030074e+01  1.1618774052e+02  7.5249498682e+01  1.234954e-13 9.
        5     1     4     0   102     0 -6.8455487999e+01  4.2801595412e+00  7.2295160157e+00  6.9135949438e+01  4.8000000000e+00 0. 9.
        1     1     5     0   103     0  4.0725041957e+01 -6.5571907267e+01 -2.1811521862e+01  8.0212564171e+01  3.3000000000e-01 0. 9.
       -2     1     5     0     0   103 -1.3402168728e+01 -1.5550035955e+00  3.0329284643e+01  3.3196544545e+01  3.3000000000e-01 0. 9.
       -3     1     7     0     0   104  1.1089608069e+01  2.1459523019e+01  8.0156326089e+00  2.5455665409e+01  5.0000000000e-01 0. 9.
        4     1     7     0   104     0  3.7378210022e+01 -1.3076555055e+01 -8.1620662683e+01  9.0732075108e+01  1.5000000000e+00 0. 9.
#pdf   -2    2  2.296797e-02  3.148643e-02  1.682704e+02  3.016321e-01  6.435763e-01
</event>
<event>
    12  9999  1.000000e+00  1.749553e+02  7.875682e-03  1.074805e-01
       21    -1     0     0   101   102  0.0000000000e+00  0.0000000000e+00  5.4263182383e+02  5.4263182383e+02  0.0000000000e+00 0. 9.
       21    -1     0     0   103   101  0.0000000000e+00  0.0000000000e+00 -1.4627772797e+02  1.4627772797e+02  0.0000000000e+00 0. 9.
        6     2     1     2   103     0 -2.3486894951e+01  2.5393722336e+00 -7.0710155650e+01  1.9100487817e+02  1.7585464091e+02  1.885122e-13 9.
       -6     2     1     2     0   102  2.3486894951e+01 -2.5393722336e+00  4.6706425150e+02  4.9790467362e+02  1.7088582837e+02  1.941467e-13 9.
       24     2     3     0     0     0 -4.9782575677e+00  3.4273922577e+01  2.3706291914e+01  8.9579255605e+01  7.9138928102e+01  1.010764e-14 9.
        5     1     3     0   103     0 -1.8508637384e+01 -3.1734550343e+01 -9.4416447563e+01  1.0142562257e+02  4.8000000000e+00 0. 9.
      -24     2     4     0     0     0  1.1605190535e+01  4.0924706569e+01  1.3451134874e+02  1.6227872977e+02  8.0197076895e+01  2.062476e-13 9.
       -5     1     4     0     0   102  1.1881704417e+01 -4.3464078802e+01  3.3255290277e+02  3.3562594385e+02  4.8000000000e+00 0. 9.
       -3     1     5     0     0   104 -2.9934750390e+01  1.3806871770e+01 -1.7412250902e+01  3.7284788727e+01  5.0000000000e-01 0. 9.
        4     1     5     0   104     0  2.4956492822e+01  2.0467050807e+01  4.1118542815e+01  5.2294466877e+01  1.5000000000e+00 0. 9.
        3     1     7     0   105     0  3.2609433785e+01  4.5664811587e+01  1.2795718278e+02  1.3972093907e+02  5.0000000000e-01 0. 9.
       -4     1     7     0     0   105 -2.1004243251e+01 -4.7401050187e+00  6.5541659581e+00  2.2557790706e+01  1.5000000000e+00 0. 9.
#pdf   21   21  8.348182e-02  2.250427e-02  1.725110e+02  1.052798e+00  4.171786e+00
</event>
<event>
    12  9999  1.000000e+00  1.951846e+02  7.885534e-03  1.060488e-01
       21    -1     0     0   101   102  0.0000000000e+00  0.0000000000e+00  1.5773268122e+02  1.5773268122e+02  0.0000000000e+00 0. 9.
       21    -1     0     0   102   103  0.0000000000e+00  0.0000000000e+00 -5.1419635391e+02  5.1419635391e+02  0.0000000000e+00 0. 9.
        6     2     1     2   101     0  9.3977315440e+01  1.4221606731e+01  6.6504589550e+01  2.0601269517e+02  1.7024799624e+02  8.648356e-14 9.
       -6     2     1     2     0   103 -9.3977315440e+01 -1.4221606731e+01 -4.2296826223e+02  4.6591633996e+02  1.7070997356e+02  6.615372e-13 9.
       24     2     3     0     0     0  1.7723236241e+01 -4.4170924261e+01  6.3621247816e+01  1.0980601177e+02  7.5792568205e+01  3.227273e-13 9.
        5     1     3     0   101     0  7.6254079198e+01  5.8392530993e+01  2.8833417341e+00  9.6206683394e+01  4.8000000000e+00 0. 9.
      -24     2     4     0     0     0 -6.8975403536e+01  3.8389024295e+01 -3.7037034065e+02  3.8728711225e+02  8.1152908778e+01  1.178670e-13 9.
       -5     1     4     0     0   103 -2.5001911904e+01 -5.2610631026e+01 -5.2597921578e+01  7.8629227709e+01  4.8000000000e+00 0. 9.
       -1     1     5     0     0   104  3.3234065307e+01 -1.0930678692e+01 -1.5488828271e+00  3.5021290261e+01  3.3000000000e-01 0. 9.
        2     1     5     0   104     0 -1.5510829066e+01 -3.3240245570e+01  6.5170130643e+01  7.4784721514e+01  3.3000000000e-01 0. 9.
        1     1     7     0   105     0 -5.9578597555e+01  5.0918783263e+01 -1.8061590693e+02  1.9688714156e+02  3.3000000000e-01 0. 9.
       -2     1     7     0     0   105 -9.3968059805e+00 -1.2529758969e+01 -1.8975443372e+02  1.9039997069e+02  3.3000000000e-01 0. 9.
#pdf   21   21  2.426657e-02  7.910713e-02  1.949830e+02  3.889147e+00  1.114773e+00
</event>
<event>
    12  9999  1.000000e+00  2.151077e+02  7.894307e-03  1.048090e-01
       21    -1     0     0   101   102  0.0000000000e+00  0.0000000000e+00  1.5736862671e+02  1.5736862671e+02  0.0000000000e+00 0. 9.
       21    -1     0     0   103   101  0.0000000000e+00  0.0000000000e+00 -4.5705617610e+02  4.5705617610e+02  0.0000000000e+00 0. 9.
        6     2     1     2   103     0 -1.0376229761e+02 -7.8657984938e+01 -3.3328652380e+02  3.9663435951e+02  1.7112923537e+02  2.443694e-13 9.
       -6     2     1     2     0   102  1.0376229761e+02  7.8657984938e+01  3.3598974412e+01  2.1779044329e+02  1.7131868873e+02  1.068741e-13 9.
       24     2     3     0     0     0 -1.0635860100e+02 -6.9317379573e+01 -1.5947920619e+02  2.2249070802e+02  8.9170885547e+01  2.863382e-13 9.
        5     1     3     0   103     0  2.5963033956e+00 -9.3406053650e+00 -1.7380731761e+02  1.7414365149e+02  4.8000000000e+00 0. 9.
      -24     2     4     0     0     0  5.5615972683e+01  9.2146284306e+01 -7.3524965270e+00  1.5298252868e+02  1.0846898519e+02  5.673219e-14 9.
       -5     1     4     0     0   102  4.8146324926e+01 -1.3488299368e+01  4.0951470939e+01  6.4807914607e+01  4.8000000000e+00 0. 9.
       -3     1     5     0     0   104 -5.0890270626e+01 -2.1793283996e+01 -1.3421897875e+02  1.4518867425e+02  5.0000000000e-01 0. 9.
        4     1     5     0   104     0 -5.5468330377e+01 -4.7524095577e+01 -2.5260227439e+01  7.7302033774e+01  1.5000000000e+00 0. 9.
        1     1     7     0   105     0  7.8897839332e+01  3.6285801368e+01 -2.4220203459e+01  9.0156838829e+01  3.3000000000e-01 0. 9.
       -2     1     7     0     0   105 -2.3281866649e+01  5.5860482938e+01  1.6867706932e+01  6.2825689855e+01  3.3000000000e-01 0. 9.
#pdf   21   21  2.421056e-02  7.031633e-02  2.150323e+02  3.886336e+00  1.278350e+00
</event>
<event>
    12  9999  1.000000e+00  1.752966e+02  7.875857e-03  1.074547e-01
       21    -1     0     0   101   102  0.0000000000e+00  0.0000000000e+00  1.5167581923e+02  1.5167581923e+02  0.0000000000e+00 0. 9.
       21    -1     0     0   103   101  0.0000000000e+00  0.0000000000e+00 -4.5320172410e+02  4.5320172410e+02  0.0000000000e+00 0. 9.
        6     2     1     2   103     0 -3.3055817463e+01  2.2260623075e+01 -3.7583003392e+02  4.1488754048e+02  1.7115850679e+02  2.122532e-13 9.
       -6     2     1     2     0   102  3.3055817463e+01 -2.2260623075e+01  7.4304129047e+01  1.8999000284e+02  1.7025532349e+02  7.383344e-14 9.
       24     2     3     0     0     0  8.3596129546e+00 -9.2103037034e-03 -3.5308514113e+02  3.6243228809e+02  8.1352094953e+01  5.500784e-14 9.
        5     1     3     0   103     0 -4.1415430417e+01  2.2269833379e+01 -2.2744892788e+01  5.2455252390e+01  4.8000000000e+00 0. 9.
      -24     2     4     0     0     0  5.2181783862e+01 -7.3192792109e+01  5.0884497805e+01  1.3056435551e+02  7.9860474760e+01  1.589105e-13 9.
       -5     1     4     0     0   102 -1.9125966399e+01  5.0932169034e+01  2.3419631242e+01  5.9425647331e+01  4.8000000000e+00 0. 9.
      -13     1     5     0     0     0  1.3031852862e+01  3.9001875463e+01 -2.1344117662e+02  2.1736633253e+02  1.0566000000e-01  1.082450e+05 9.
       14     1     5     0     0     0 -4.6722399070e+00 -3.9011085767e+01 -1.3964396451e+02  1.4506595556e+02  0.0000000000e+00 0. 9.
        3     1     7     0   104     0  2.8963379104e+00 -3.9679841126e+01 -1.4262021000e+01  4.2267408344e+01  5.0000000000e-01 0. 9.
       -2     1     7     0     0   104  4.9285445952e+01 -3.3512950983e+01  6.5146518805e+01  8.8296947166e+01  3.3000000000e-01 0. 9.
#pdf   21   21  2.333474e-02  6.972334e-02  1.748574e+02  4.038672e+00  1.313306e+00
</event>
<event>
    12  9999  1.000000e+00  1.814597e+02  7.878966e-03  1.069985e-01
       21    -1     0     0   101   102  0.0000000000e+00  0.0000000000e+00  4.3759093705e+02  4.3759093705e+02  0.0000000000e+00 0. 9.
       21    -1     0     0   103   101  0.0000000000e+00  0.0000000000e+00 -7.6487132841e+01  7.6487132841e+01  0.0000000000e+00 0. 9.
        6     2     1     2   103     0 -5.8623225313e+01  1.8427146473e+01  1.4823888403e+02  2.3463332974e+02  1.7117765747e+02  6.896209e-15 9.
       -6     2     1     2     0   102  5.8623225313e+01 -1.8427146473e+01  2.1286492018e+02  2.7944474014e+02  1.7029869723e+02  4.832293e-13 9.
       24     2     3     0     0     0 -3.4859229222e+01  7.1003989418e+01  1.3426634685e+02  1.7507391639e+02  7.9791552979e+01  2.545549e-14 9.
        5     1     3     0   103     0 -2.3763996091e+01 -5.2576842945e+01  1.3972537177e+01  5.9559413357e+01  4.8000000000e+00 0. 9.
      -24     2     4     0     0     0  5.0528682131e+01  5.3436008911e+01  1.3388939077e+02  1.7225328071e+02  7.9600684590e+01  5.488963e-14 9.
       -5     1     4     0     0   102  8.0945431825e+00 -7.1863155384e+01  7.8975529409e+01  1.0719145944e+02  4.8000000000e+00 0. 9.
       -1     1     5     0     0   104 -5.2464138731e+01  2.7939977274e+01  4.5508498414e+01  7.4861609058e+01  3.3000000000e-01 0. 9.
        2     1     5     0   104     0  1.7604909509e+01  4.3064012145e+01  8.8757848438e+01  1.0021230733e+02  3.3000000000e-01 0. 9.
        3     1     7     0   105     0  6.3213327640e+01  1.6816157840e+01  1.0571359048e+02  1.2431541002e+02  5.0000000000e-01 0. 9.
       -4     1     7     0     0   105 -1.2684645510e+01  3.6619851071e+01  2.8175800290e+01  4.7937870688e+01  1.5000000000e+00 0. 9.
#pdf   21   21  6.732168e-02  1.176725e-02  1.810466e+02  1.365665e+00  7.148422e+00
</event>
<event>
    12  9999  1.000000e+00  2.950313e+02  7.922961e-03  1.009743e-01
       21    -1     0     0   101   102  0.0000000000e+00  0.0000000000e+00  6.3840125611e+02  6.3840125611e+02  0.0000000000e+00 0. 9.
       21    -1     0     0   103   101  0.0000000000e+00  0.0000000000e+00 -2.4055457585e+02  2.4055457585e+02  0.0000000000e+00 0. 9.
        6     2     1     2   103     0 -1.3608498462e+02  1.9814647663e+02 -9.0330577896e+01  3.0855452338e+02  1.7107054497e+02  9.463056e-14 9.
       -6     2     1     2     0   102  1.3608498462e+02 -1.9814647663e+02  4.8817725815e+02  5.7040130859e+02  1.7105399212e+02  2.796444e-14 9.
       24     2     3     0     0     0 -8.5549192267e+01  5.0600280976e+01 -8.1931465905e+01  1.5229406375e+02  8.1250624718e+01  7.697283e-14 9.
        5     1     3     0   103     0 -5.0535792352e+01  1.4754619565e+02 -8.3991119906e+00  1.5626045962e+02  4.8000000000e+00 0. 9.
      -24     2     4     0     0     0  1.6592321987e+02 -1.4690708567e+02  3.9564535615e+02  4.6039681615e+02  7.9484424663e+01  2.627401e-13 9.
       -5     1     4     0     0   102 -2.9838235249e+01 -5.1239390951e+01  9.2531902007e+01  1.1000449244e+02  4.8000000000e+00 0. 9.
       -3     1     5     0     0   104  1.0947637140e+01  9.2545737777e+00  5.8002382199e+00  1.5472254463e+01  5.0000000000e-01 0. 9.
        4     1     5     0   104     0 -9.6496829406e+01  4.1345707199e+01 -8.7731704125e+01  1.3682180929e+02  1.5000000000e+00 0. 9.
        3     1     7     0   105     0  1.6240181846e+02 -1.0913150978e+02  3.0819550643e+02  3.6505993652e+02  5.0000000000e-01 0. 9.
       -4     1     7     0     0   105  3.5214014098e+00 -3.7775575897e+01  8.7449849716e+01  9.5336879631e+01  1.5000000000e+00 0. 9.
#pdf   21   21  9.821558e-02  3.700840e-02  2.950265e+02  8.049945e-01  2.551758e+00
</event>
<event>
    12  9999  1.000000e+00  1.946265e+02  7.885276e-03  1.060858e-01
       21    -1     0     0   101   102  0.0000000000e+00  0.0000000000e+00  8.9951951856e+01  8.9951951856e+01  0.0000000000e+00 0. 9.
       21    -1     0     0   102   103  0.0000000000e+00  0.0000000000e+00 -4.2291999066e+02  4.2291999066e+02  0.0000000000e+00 0. 9.
        6     2     1     2   101     0 -7.4549238809e+01 -6.1320152419e+01 -1.4780710193e+02  2.4229899047e+02  1.6596418681e+02  1.312526e-13 9.
       -6     2     1     2     0   103  7.4549238809e+01  6.1320152419e+01 -1.8516093688e+02  2.7057295204e+02  1.7206800903e+02  1.257495e-13 9.
       24     2     3     0     0     0 -2.0906003302e+01 -5.8823177160e+01 -2.0131485818e+01  1.0370629748e+02  8.0327406726e+01  1.197235e-13 9.
        5     1     3     0   101     0 -5.3643235507e+01 -2.4969752588e+00 -1.2767561611e+02  1.3859269299e+02  4.8000000000e+00 0. 9.
      -24     2     4     0     0     0 -2.0879072861e+00  5.2525492751e+01 -3.6693616185e+01  1.0319259623e+02  8.0864106385e+01  1.666933e-13 9.
       -5     1     4     0     0   103  7.6637146095e+01  8.7946596683e+00 -1.4846732069e+02  1.6738035582e+02  4.8000000000e+00 0. 9.
       -3     1     5     0     0   104 -4.7693295602e+01 -1.8778326326e+01 -2.1255258738e+01  5.5491548987e+01  5.0000000000e-01 0. 9.
        4     1     5     0   104     0  2.6787292299e+01 -4.0044850834e+01  1.1237729202e+00  4.8214748497e+01  1.5000000000e+00 0. 9.
       15     1     7     0     0     0 -1.4645126789e+01  2.9979046833e+01  2.1363253769e+01  3.9658147821e+01  1.7768200000e+00  2.130800e-02 9.
      -16     1     7     0     0     0  1.2557219503e+01  2.2546445917e+01 -5.8056869954e+01  6.3534448404e+01  0.0000000000e+00 0. 9.
#pdf   21   21  1.383876e-02  6.506461e-02  1.919944e+02  6.283931e+00  1.415438e+00
</event>
<event>
    12  9999  1.000000e+00  1.828989e+02  7.879677e-03  1.068948e-01
       21    -1     0     0   101   102  0.0000000000e+00  0.0000000000e+00  1.4329967846e+02  1.4329967846e+02  0.0000000000e+00 0. 9.
       21    -1     0     0   102   103  0.0000000000e+00  0.0000000000e+00 -2.7558562664e+02  2.7558562664e+02  0.0000000000e+00 0. 9.
        6     2     1     2   101     0 -6.2763353976e+01 -2.1779909634e+01  1.5561351978e+01  1.8420194322e+02  1.7109820906e+02  5.629781e-14 9.
       -6     2     1     2     0   103  6.2763353976e+01  2.1779909634e+01 -1.4784730016e+02  2.3468336189e+02  1.6971697946e+02  5.425407e-13 9.
       24     2     3     0     0     0 -3.5857649867e+01 -2.7141667960e+01  7.4327856801e+01  1.1916958623e+02  8.1574008067e+01  1.068383e-13 9.
        5     1     3     0   101     0 -2.6905704109e+01  5.3617583259e+00 -5.8766504823e+01  6.5032356985e+01  4.8000000000e+00 0. 9.
      -24     2     4     0     0     0  1.0678697928e+02  1.9390729278e+01 -9.4593385746e+01  1.6538107356e+02  8.1385081807e+01  6.436748e-14 9.
       -5     1     4     0     0   103 -4.4023625300e+01  2.3891803562e+00 -5.3253914413e+01  6.9302288329e+01  4.8000000000e+00 0. 9.
       -1     1     5     0     0   104  2.4939399517e+00 -4.8811173381e+01  3.4980057318e+01  6.0103774368e+01  3.3000000000e-01 0. 9.
        2     1     5     0   104     0 -3.8351589819e+01  2.1669505421e+01  3.9347799483e+01  5.9065811863e+01  3.3000000000e-01 0. 9.
       15     1     7     0     0     0  1.4845438595e+01 -1.1491880608e+01  1.1139024304e+01  2.1901719538e+01  1.7768200000e+00  6.291353e-02 9.
      -16     1     7     0     0     0  9.1941540681e+01  3.0882609886e+01 -1.0573241005e+02  1.4347935402e+02  0.0000000000e+00 0. 9.
#pdf   21   21  2.204610e-02  4.239779e-02  1.822566e+02  4.243852e+00  2.276048e+00
</event>
<event>
    12  9999  1.000000e+00  2.157983e+02  7.894597e-03  1.047686e-01
       21    -1     0     0   101   102  0.0000000000e+00  0.0000000000e+00  3.5863422394e+02  3.5863422394e+02  0.0000000000e+00 0. 9.
       21    -1     0     0   103   101  0.0000000000e+00  0.0000000000e+00 -2.4788558100e+02  2.4788558100e+02  0.0000000000e+00 0. 9.
        6     2     1     2   103     0 -1.1298973341e+02 -6.8540382409e+01 -1.5390846249e+02  2.6494562096e+02  1.7042271962e+02  3.552563e-14 9.
       -6     2     1     2     0   102  1.1298973341e+02  6.8540382409e+01  2.6465710543e+02  3.4157418399e+02  1.7077785523e+02  1.319975e-13 9.
       24     2     3     0     0     0 -1.2195764132e+02 -7.1563160390e+01 -5.7980142872e+01  1.6843218633e+02  7.0800792537e+01  1.202970e-13 9.
        5     1     3     0   103     0  8.9679079075e+00  3.0227779811e+00 -9.5928319615e+01  9.6513434625e+01  4.8000000000e+00 0. 9.
      -24     2     4     0     0     0  1.1215457470e+02  9.3631212274e+01  2.6731957769e+02  3.1587640214e+02  8.3502648310e+01  1.385270e-13 9.
       -5     1     4     0     0   102  8.3515870805e-01 -2.5090829866e+01 -2.6624722601e+00  2.5697781849e+01  4.8000000000e+00 0. 9.
      -13     1     5     0     0     0 -7.4632837284e+01 -6.4453162618e+01 -7.5357725466e+00  9.8899290212e+01  1.0566000000e-01  1.336453e+05 9.
       14     1     5     0     0     0 -4.7324804034e+01 -7.1099977721e+00 -5.0444370325e+01  6.9532896118e+01  0.0000000000e+00 0. 9.
        1     1     7     0   104     0  5.3607921615e+01  8.9348870282e+01  2.0677496283e+02  2.3154486397e+02  3.3000000000e-01 0. 9.
       -2     1     7     0     0   104  5.8546653088e+01  4.2823419925e+00  6.0544614859e+01  8.4331538164e+01  3.3000000000e-01 0. 9.
#pdf   21   21  5.517450e-02  3.813624e-02  2.156580e+02  1.696249e+00  2.514566e+00
</event>
<event>
    12  9999  1.000000e+00  1.944031e+02  7.885173e-03  1.061006e-01
       21    -1     0     0   101   102  0.0000000000e+00  0.0000000000e+00  1.0973070339e+03  1.0973070339e+03  0.0000000000e+00 0. 9.
       21    -1     0     0   103   101  0.0000000000e+00  0.0000000000e+00 -4.0664119598e+01  4.0664119598e+01  0.0000000000e+00 0. 9.
        6     2     1     2   103     0 -4.3394028064e+01  7.9173949929e+01  3.0645764705e+02  3.6308444620e+02  1.7251802693e+02  4.838459e-14 9.
       -6     2     1     2     0   102  4.3394028064e+01 -7.9173949929e+01  7.5018526728e+02  7.7488670733e+02  1.7181361394e+02  2.183566e-13 9.
       24     2     3     0     0     0 -6.0751665771e+01  3.5958581498e+01  8.8145385923e+01  1.3980852046e+02  8.2419832904e+01  3.722971e-14 9.
        5     1     3     0   103     0  1.7357637708e+01  4.3215368431e+01  2.1831226113e+02  2.2327592574e+02  4.8000000000e+00 0. 9.
      -24     2     4     0     0     0  6.2882882652e+01 -1.1192299396e+02  5.1332325545e+02  5.3493052802e+02  7.8542292564e+01  1.431600e-13 9.
       -5     1     4     0     0   102 -1.9488854588e+01  3.2749044032e+01  2.3686201183e+02  2.3995617930e+02  4.8000000000e+00 0. 9.
      -15     1     5     0     0     0 -7.9045358437e+01  3.6278893069e+01  8.4251148843e+01  1.2110218802e+02  1.7768200000e+00  5.996607e-02 9.
       16     1     5     0     0     0  1.8293692665e+01 -3.2031157055e-01  3.8942370798e+00  1.8706332438e+01  0.0000000000e+00 0. 9.
        3     1     7     0   104     0  7.4361876077e+01 -9.5130905748e+01  4.8634556759e+02  5.0111060551e+02  5.0000000000e-01 0. 9.
       -4     1     7     0     0   104 -1.1478993425e+01 -1.6792088213e+01  2.6977687856e+01  3.3819922511e+01  1.5000000000e+00 0. 9.
#pdf   21   21  1.688165e-01  6.256018e-03  1.940914e+02  3.668366e-01  1.148605e+01
</event>
<event>
    12  9999  1.000000e+00  2.819691e+02  7.918841e-03  1.015064e-01
       -2    -1     0     0     0   101  0.0000000000e+00  0.0000000000e+00  6.6465508317e+01  6.6465508317e+01  0.0000000000e+00 0. 9.
        2    -1     0     0   102     0  0.0000000000e+00  0.0000000000e+00 -1.2433962156e+03  1.2433962156e+03  0.0000000000e+00 0. 9.
       -6     2     1     2     0   101 -2.1190786997e+01 -2.2211033426e+02 -4.6321532417e+02  5.4288707577e+02  1.7428680514e+02  8.022826e-14 9.
        6     2     1     2   102     0  2.1190786997e+01  2.2211033426e+02 -7.1371538309e+02  7.6697464813e+02  1.7052393608e+02  2.239229e-14 9.
      -24     2     3     0     0     0 -6.8521020147e+01 -7.9515280838e+01 -1.9056067157e+02  2.3153984225e+02  7.9243415572e+01  7.564649e-14 9.
       -5     1     3     0     0   101  4.7330233150e+01 -1.4259505343e+02 -2.7265465261e+02  3.1134723352e+02  4.8000000000e+00 0. 9.
       24     2     4     0     0     0  2.0297267176e+01  7.2310917371e+01 -1.6206013677e+02  1.9532159385e+02  7.9032836644e+01  6.261851e-15 9.
        5     1     4     0   102     0  8.9351982167e-01  1.4979941689e+02 -5.5165524632e+02  5.7165305428e+02  4.8000000000e+00 0. 9.
        3     1     5     0   103     0 -7.1556362839e+01 -7.4479546196e+01 -1.9715956131e+02  2.2257506258e+02  5.0000000000e-01 0. 9.
       -4     1     5     0     0   103  3.0353426915e+00 -5.0357346414e+00  6.5988897469e+00  8.9647796696e+00  1.5000000000e+00 0. 9.
       -3     1     7     0     0   104  2.5747980551e+01  7.8007691943e+01 -1.6684889293e+02  1.8597570158e+02  5.0000000000e-01 0. 9.
        4     1     7     0   104     0 -5.4507133750e+00 -5.6967745719e+00  4.7887561600e+00  9.3458922730e+00  1.5000000000e+00 0. 9.
#pdf   -2    2  1.022546e-02  1.912917e-01  2.808211e+02  5.241947e-01  4.513943e-01
</event>
<event>
    12  9999  1.000000e+00  2.436266e+02  7.905574e-03  1.032632e-01
       21    -1     0     0   101   102  0.0000000000e+00  0.0000000000e+00  1.6922135906e+02  1.6922135906e+02  0.0000000000e+00 0. 9.
       21    -1     0     0   102   103  0.0000000000e+00  0.0000000000e+00 -6.0270652866e+02  6.0270652866e+02  0.0000000000e+00 0. 9.
        6     2     1     2   101     0 -1.1750276881e+02 -1.2700515277e+02  3.3085945669e+01  2.4532976667e+02  1.7074778213e+02  2.129913e-13 9.
       -6     2     1     2     0   103  1.1750276881e+02  1.2700515277e+02 -4.6657111527e+02  5.2659812105e+02  1.7227816455e+02  1.799702e-13 9.
       24     2     3     0     0     0  5.0338648552e+00 -3.0854659506e+01  1.2667194268e+01  8.8167082312e+01  8.1459356640e+01  1.021085e-14 9.
        5     1     3     0   101     0 -1.2253663366e+02 -9.6150493269e+01  2.0418751401e+01  1.5716268436e+02  4.8000000000e+00 0. 9.
      -24     2     4     0     0     0  1.4180580829e+02  6.2554583938e+01 -3.1638238784e+02  3.6129776595e+02  8.0101792145e+01  1.576430e-14 9.
       -5     1     4     0     0   103 -2.4303039483e+01  6.4450568836e+01 -1.5018872742e+02  1.6530035510e+02  4.8000000000e+00 0. 9.
       -1     1     5     0     0   104 -2.1563628241e+01 -4.2700887993e+01 -1.2758956037e+01  4.9510158124e+01  3.3000000000e-01 0. 9.
        2     1     5     0   104     0  2.6597493096e+01  1.1846228487e+01  2.5426150305e+01  3.8656924188e+01  3.3000000000e-01 0. 9.
        3     1     7     0   105     0  2.8109893325e+01  2.1016432311e+01 -1.5853871160e+02  1.6237804533e+02  5.0000000000e-01 0. 9.
       -4     1     7     0     0   105  1.1369591497e+02  4.1538151627e+01 -1.5784367625e+02  1.9891972062e+02  1.5000000000e+00 0. 9.
#pdf   21   21  2.603406e-02  9.272408e-02  2.430885e+02  3.621577e+00  8.880094e-01
</event>
<event>
    12  9999  1.000000e+00  2.379047e+02  7.903420e-03  1.035547e-01
       21    -1     0     0   101   102  0.0000000000e+00  0.0000000000e+00  8.4322319949e+02  8.4322319949e+02  0.0000000000e+00 0. 9.
       21    -1     0     0   103   101  0.0000000000e+00  0.0000000000e+00 -2.0081856937e+02  2.0081856937e+02  0.0000000000e+00 0. 9.
        6     2     1     2   103     0 -1.5074178087e+02  6.7339321406e+01 -1.0476369677e+02  2.5989341792e+02  1.7120598065e+02  3.382014e-14 9.
       -6     2     1     2     0   102  1.5074178087e+02 -6.7339321406e+01  7.4716832689e+02  7.8414835094e+02  1.7137811665e+02  2.138805e-13 9.
       24     2     3     0     0     0 -1.6744441022e+02  9.1204303975e+01 -8.1155148086e+01  2.2209237573e+02  7.9893740154e+01  2.105448e-13 9.
        5     1     3     0   103     0  1.6702629349e+01 -2.3864982568e+01 -2.3608548683e+01  3.7801042196e+01  4.8000000000e+00 0. 9.
      -24     2     4     0     0     0  7.7962782279e+00 -7.3198829425e+00  2.0755640389e+02  2.2268613747e+02  7.9969321505e+01  4.855883e-14 9.
       -5     1     4     0     0   102  1.4294550265e+02 -6.0019438464e+01  5.3961192300e+02  5.6146221348e+02  4.8000000000e+00 0. 9.
       -3     1     5     0     0   104 -1.2565590560e-01  1.6744001946e+01  7.8094397970e+00  1.8482822850e+01  5.0000000000e-01 0. 9.
        4     1     5     0   104     0 -1.6731875432e+02  7.4460302029e+01 -8.8964587883e+01  2.0360955288e+02  1.5000000000e+00 0. 9.
        1     1     7     0   105     0  5.7556865296e+00 -2.1946585245e+01  1.0372206658e+01  2.4949390820e+01  3.3000000000e-01 0. 9.
       -2     1     7     0     0   105  2.0405916983e+00  1.4626702303e+01  1.9718419724e+02  1.9773674665e+02  3.3000000000e-01 0. 9.
#pdf   21   21  1.297266e-01  3.089516e-02  2.378427e+02  5.491374e-01  3.082172e+00
</event>
<event>
    12  9999  1.000000e+00  1.734346e+02  7.874896e-03  1.075965e-01
       21    -1     0     0   101   102  0.0000000000e+00  0.0000000000e+00  1.9388820062e+02  1.9388820062e+02  0.0000000000e+00 0. 9.
       21    -1     0     0   103   101  0.0000000000e+00  0.0000000000e+00 -1.7528337174e+02  1.7528337174e+02  0.0000000000e+00 0. 9.
        6     2     1     2   103     0  2.0573747338e+01  2.6865164414e+01 -5.3231999193e+01  1.8215612889e+02  1.7088649278e+02  2.760269e-14 9.
       -6     2     1     2     0   102 -2.0573747338e+01 -2.6865164414e+01  7.1836828076e+01  1.8701544347e+02  1.6931990459e+02  4.560341e-13 9.
       24     2     3     0     0     0  2.5390955804e+01 -4.1431119511e+01  5.4836988005e+00  9.1833589697e+01  7.7730939422e+01  1.152016e-13 9.
        5     1     3     0   103     0 -4.8172084663e+00  6.8296283925e+01 -5.8715697994e+01  9.0322539193e+01  4.8000000000e+00 0. 9.
      -24     2     4     0     0     0  9.0015983205e+00 -6.7261348701e+01  7.9446054718e+00  1.0570241324e+02  8.0652127112e+01  5.772355e-15 9.
       -5     1     4     0     0   102 -2.9575345659e+01  4.0396184287e+01  6.3892222604e+01  8.1313030230e+01  4.8000000000e+00 0. 9.
       -3     1     5     0     0   104  1.2242290237e+01  2.5714967018e+00 -3.0824793308e+01  3.3270169041e+01  5.0000000000e-01 0. 9.
        4     1     5     0   104     0  1.3148665568e+01 -4.4002616213e+01  3.6308492108e+01  5.8563420656e+01  1.5000000000e+00 0. 9.
        3     1     7     0   105     0  1.0292535292e+00 -5.3923169091e+01  4.1921086021e+01  6.8311016541e+01  5.0000000000e-01 0. 9.
       -4     1     7     0     0   105  7.9723447913e+00 -1.3338179610e+01 -3.3976480549e+01  3.7391396701e+01  1.5000000000e+00 0. 9.
#pdf   21   21  2.982895e-02  2.696667e-02  1.726680e+02  3.226318e+00  3.544123e+00
</event>
<event>
    12  9999  1.000000e+00  2.209472e+02  7.896729e-03  1.044725e-01
       21    -1     0     0   101   102  0.0000000000e+00  0.0000000000e+00  3.7727502655e+01  3.7727502655e+01  0.0000000000e+00 0. 9.
       21    -1     0     0   102   103  0.0000000000e+00  0.0000000000e+00 -1.6160831354e+03  1.6160831354e+03  0.0000000000e+00 0. 9.
        6     2     1     2   101     0 -1.0973872427e+02  8.5785818807e+01 -4.2123326935e+02  4.7586336010e+02  1.7206590590e+02  1.461889e-13 9.
       -6     2     1     2     0   103  1.0973872427e+02 -8.5785818807e+01 -1.1571223634e+03  1.1779472779e+03  1.7095564175e+02  1.305841e-13 9.
       24     2     3     0     0     0 -3.0624814134e+01  7.2654499877e+01 -3.5317481650e+02  3.7057121739e+02  7.9837463355e+01  1.535019e-13 9.
        5     1     3     0   101     0 -7.9113910134e+01  1.3131318930e+01 -6.8058452852e+01  1.0529214272e+02  4.8000000000e+00 0. 9.
      -24     2     4     0     0     0  1.2887225787e+02 -1.1104605418e+02 -9.6445390631e+02  9.8263126234e+02  8.0334147931e+01  2.418977e-13 9.
       -5     1     4     0     0   103 -1.9133533605e+01  2.5260235376e+01 -1.9266845705e+02  1.9531601558e+02  4.8000000000e+00 0. 9.
       -1     1     5     0     0   104  4.8449811334e+00 -1.4269193799e+01 -8.7678968483e+01  8.8965128832e+01  3.3000000000e-01 0. 9.
        2     1     5     0   104     0 -3.5469795267e+01  8.6923693676e+01 -2.6549584801e+02  2.8160608855e+02  3.3000000000e-01 0. 9.
        3     1     7     0   105     0  7.7585802200e+01 -3.4925467209e+01 -2.9883342592e+02  3.1071049453e+02  5.0000000000e-01 0. 9.
       -4     1     7     0     0   105  5.1286455674e+01 -7.6120586974e+01 -6.6562048039e+02  6.7192076780e+02  1.5000000000e+00 0. 9.
#pdf   21   21  5.804231e-03  2.486282e-01  2.205167e+02  1.216355e+01  1.636785e-01
</event>
<event>
    12  9999  1.000000e+00  1.760706e+02  7.876253e-03  1.073963e-01
       21    -1     0     0   101   102  0.0000000000e+00  0.0000000000e+00  3.0448399276e+02  3.0448399276e+02  0.0000000000e+00 0. 9.
       21    -1     0     0   103   101  0.0000000000e+00  0.0000000000e+00 -1.5224842850e+02  1.5224842850e+02  0.0000000000e+00 0. 9.
        6     2     1     2   103     0 -1.7775369168e+01  4.2452877581e+01 -5.5554354501e+01  1.8384028134e+02  1.6909391525e+02  3.899867e-14 9.
       -6     2     1     2     0   102  1.7775369168e+01 -4.2452877581e+01  2.0778991876e+02  2.7289213992e+02  1.7080766706e+02  8.194616e-14 9.
       24     2     3     0     0     0 -4.8611949260e+01 -2.1972897538e+01 -9.1155279586e+00  9.8510451957e+01  8.2312128254e+01  1.075530e-13 9.
        5     1     3     0   103     0  3.0836580092e+01  6.4425775119e+01 -4.6438826542e+01  8.5329829381e+01  4.8000000000e+00 0. 9.
      -24     2     4     0     0     0  2.9862799368e+01 -9.4015779413e+01  9.7237342730e+01  1.5021471379e+02  5.8125776153e+01  1.258545e-13 9.
       -5     1     4     0     0   102 -1.2087430200e+01  5.1562901831e+01  1.1055257603e+02  1.2267742613e+02  4.8000000000e+00 0. 9.
       -3     1     5     0     0   104 -3.3558560324e+01  2.9250540165e+01 -1.3686252615e+00  4.4540927315e+01  5.0000000000e-01 0. 9.
        4     1     5     0   104     0 -1.5053388936e+01 -5.1223437703e+01 -7.7469026971e+00  5.3969524641e+01  1.5000000000e+00 0. 9.
        1     1     7     0   105     0  3.1387695760e+00  6.9726605007e+00  2.3381955599e-01  7.6572475795e+00  3.3000000000e-01 0. 9.
       -2     1     7     0     0   105  2.6724029792e+01 -1.0098843991e+02  9.7003523174e+01  1.4255746621e+02  3.3000000000e-01 0. 9.
#pdf   21   21  4.684369e-02  2.342284e-02  1.752454e+02  2.054700e+00  4.024940e+00
</event>
<event>
    12  9999  1.000000e+00  2.130819e+02  7.893452e-03  1.049284e-01
       21    -1     0     0   101   102  0.0000000000e+00  0.0000000000e+00  1.5899107712e+02  1.5899107712e+02  0.0000000000e+00 0. 9.
       21    -1     0     0   103   101  0.0000000000e+00  0.0000000000e+00 -3.1221975770e+02  3.1221975770e+02  0.0000000000e+00 0. 9.
        6     2     1     2   103     0  7.9570715171e+01 -8.8285729543e+01 -9.5031349126e+00  2.1797902195e+02  1.8247924727e+02  3.892352e-14 9.
       -6     2     1     2     0   102 -7.9570715171e+01  8.8285729543e+01 -1.4372554567e+02  2.5323181286e+02  1.7129929893e+02  3.283362e-13 9.
       24     2     3     0     0     0  4.0260257255e+01  2.8156832108e+01  5.7066105847e+00  9.4049370039e+01  7.9993894090e+01  3.033431e-13 9.
        5     1     3     0   103     0  3.9310457916e+01 -1.1644256165e+02 -1.5209745497e+01  1.2392965191e+02  4.8000000000e+00 0. 9.
      -24     2     4     0     0     0 -7.0243292113e+01 -3.3986726514e+00 -3.9069131058e+01  1.1370032700e+02  8.0347347785e+01  1.103044e-13 9.
       -5     1     4     0     0   102 -9.3274230573e+00  9.1684402194e+01 -1.0465641461e+02  1.3953148586e+02  4.8000000000e+00 0. 9.
       -3     1     5     0     0   104  3.3366312036e+01 -1.1219508086e+01  3.0842100915e+01  4.6804629359e+01  5.0000000000e-01 0. 9.
        4     1     5     0   104     0  6.8939452189e+00  3.9376340194e+01 -2.5135490330e+01  4.7244740680e+01  1.5000000000e+00 0. 9.
       15     1     7     0     0     0 -4.2447160772e+01 -1.2992758855e+01 -6.2095829385e+01  7.6351963672e+01  1.7768200000e+00  1.576558e-01 9.
      -16     1     7     0     0     0 -2.7796131341e+01  9.5940862034e+00  2.3026698327e+01  3.7348363330e+01  0.0000000000e+00 0. 9.
#pdf   21   21  2.446017e-02  4.803381e-02  2.084930e+02  3.853848e+00  1.979910e+00
</event>
<event>
    12  9999  1.000000e+00  1.966868e+02  7.886226e-03  1.059499e-01
       21    -1     0     0   101   102  0.0000000000e+00  0.0000000000e+00  1.4654911054e+03  1.4654911054e+03  0.0000000000e+00 0. 9.
       21    -1     0     0   102   103  0.0000000000e+00  0.0000000000e+00 -3.2069359814e+01  3.2069359814e+01  0.0000000000e+00 0. 9.
        6     2     1     2   101     0 -8.7391561704e+01  4.3563792200e+01  4.0101119408e+02  4.4653072188e+02  1.7042481850e+02  6.432725e-14 9.
       -6     2     1     2     0   103  8.7391561704e+01 -4.3563792200e+01  1.0324105515e+03  1.0510297433e+03  1.7104644239e+02  1.655339e-13 9.
       24     2     3     0     0     0 -1.1744167348e+02  6.5301330975e+01  3.1437001384e+02  3.5216301595e+02  8.4459894061e+01  3.099568e-13 9.
        5     1     3     0   101     0  3.0050111777e+01 -2.1737538775e+01  8.6641180239e+01  9.4367705933e+01  4.8000000000e+00 0. 9.
      -24     2     4     0     0     0  5.5742105527e+01  7.0566027307e+00  2.7853192837e+02  2.9477573119e+02  7.8458387726e+01  8.187550e-14 9.
       -5     1     4     0     0   103  3.1649456178e+01 -5.0620394930e+01  7.5387862314e+02  7.5625401215e+02  4.8000000000e+00 0. 9.
       -1     1     5     0     0   104 -8.7713938622e+01  1.8459117839e+00  1.9324488956e+02  2.1222827017e+02  3.3000000000e-01 0. 9.
        2     1     5     0   104     0 -2.9727734859e+01  6.3455419191e+01  1.2112512428e+02  1.3993474578e+02  3.3000000000e-01 0. 9.
        3     1     7     0   105     0  5.3799515983e+01 -2.2162496464e+01  1.1775761398e+02  1.3134941881e+02  5.0000000000e-01 0. 9.
       -4     1     7     0     0   105  1.9425895436e+00  2.9219099195e+01  1.6077431439e+02  1.6342631238e+02  1.5000000000e+00 0. 9.
#pdf   21   21  2.254602e-01  4.933748e-03  1.964172e+02  2.092709e-01  1.358549e+01
</event>
<event>
    12  9999  1.000000e+00  1.794645e+02  7.877971e-03  1.071441e-01
       21    -1     0     0   101   102  0.0000000000e+00  0.0000000000e+00  2.1891393687e+01  2.1891393687e+01  0.0000000000e+00 0. 9.
       21    -1     0     0   103   101  0.0000000000e+00  0.0000000000e+00 -2.5202760579e+03  2.5202760579e+03  0.0000000000e+00 0. 9.
        6     2     1     2   103     0 -4.1786539811e+01 -3.1238264080e+01 -2.0729646704e+03  2.0807983109e+03  1.7267640822e+02  2.399283e-13 9.
       -6     2     1     2     0   102  4.1786539811e+01  3.1238264080e+01 -4.2541999380e+02  4.6136914065e+02  1.7075528914e+02  2.051363e-13 9.
       24     2     3     0     0     0  1.7280630036e+00 -6.3235744650e+01 -7.7780423323e+02  7.8450322205e+02  8.0399841883e+01  2.008258e-13 9.
        5     1     3     0   103     0 -4.3514602814e+01  3.1997480570e+01 -1.2951604371e+03  1.2962950888e+03  4.8000000000e+00 0. 9.
      -24     2     4     0     0     0  6.6283674270e+01 -2.4038598499e+01 -1.9853650844e+02  2.2651855610e+02  8.3201751085e+01  1.707207e-13 9.
       -5     1     4     0     0   102 -2.4497134460e+01  5.5276862579e+01 -2.2688348536e+02  2.3485058455e+02  4.8000000000e+00 0. 9.
       -3     1     5     0     0   104 -6.1320658838e+00  1.8729384128e+01 -1.3035267119e+02  1.3183497619e+02  5.0000000000e-01 0. 9.
        4     1     5     0   104     0  7.8601288875e+00 -8.1965128778e+01 -6.4745156205e+02  6.5266824586e+02  1.5000000000e+00 0. 9.
        3     1     7     0   105     0  8.7491937921e-01  2.5413269224e+01 -3.1886578675e+01  4.0787297485e+01  5.0000000000e-01 0. 9.
       -2     1     7     0     0   105  6.5408754891e+01 -4.9451867722e+01 -1.6664992976e+02  1.8573125862e+02  3.3000000000e-01 0. 9.
#pdf   21   21  3.367907e-03  3.877348e-01  1.785478e+02  1.751327e+01  4.118169e-02
</event>
<event>
    12  9999  1.000000e+00  2.874993e+02  7.920608e-03  1.012775e-01
        1    -1     0     0   101     0  0.0000000000e+00  0.0000000000e+00  3.5784978757e+02  3.5784978757e+02  0.0000000000e+00 0. 9.
       -1    -1     0     0     0   102  0.0000000000e+00  0.0000000000e+00 -3.2501301427e+02  3.2501301427e+02  0.0000000000e+00 0. 9.
        6     2     1     2   101     0  4.7381310997e+01 -2.2343939958e+02 -1.6714495097e+02  3.3418411655e+02  1.7768352540e+02  1.132660e-13 9.
       -6     2     1     2     0   102 -4.7381310997e+01  2.2343939958e+02  1.9998172427e+02  3.4867868530e+02  1.7150504838e+02  1.545714e-13 9.
       24     2     3     0     0     0  8.3114512821e+01 -1.9982457567e+02 -1.7618766839e+02  2.9014626511e+02  7.9403258005e+01  2.005708e-15 9.
        5     1     3     0   101     0 -3.5733201824e+01 -2.3614823917e+01  9.0427174149e+00  4.4037851440e+01  4.8000000000e+00 0. 9.
      -24     2     4     0     0     0 -8.3697277263e+01  2.1916522839e+02  1.8162969500e+02  3.0748457257e+02  8.0738991244e+01  7.083242e-14 9.
       -5     1     4     0     0   102  3.6315966266e+01  4.2741711994e+00  1.8352029272e+01  4.1194112730e+01  4.8000000000e+00 0. 9.
      -15     1     5     0     0     0  1.8166672652e+01 -2.2211150853e+01 -6.4241835258e+01  7.0381344859e+01  1.7768200000e+00  9.851004e-04 9.
       16     1     5     0     0     0  6.4947840169e+01 -1.7761342481e+02 -1.1194583313e+02  2.1976492025e+02  0.0000000000e+00 0. 9.
       15     1     7     0     0     0 -7.4227598176e+01  1.9861404084e+02  1.8862977368e+02  2.8379855912e+02  1.7768200000e+00  2.890049e-02 9.
      -16     1     7     0     0     0 -9.4696790869e+00  2.0551187546e+01 -7.0000786817e+00  2.3686013449e+01  0.0000000000e+00 0. 9.
#pdf    1   -1  5.505381e-02  5.000200e-02  2.856294e+02  4.207821e-01  1.891871e-01
</event>
<event>
    12  9999  1.000000e+00  1.862780e+02  7.881326e-03  1.066552e-01
       21    -1     0     0   101   102  0.0000000000e+00  0.0000000000e+00  2.0910582329e+01  2.0910582329e+01  0.0000000000e+00 0. 9.
       21    -1     0     0   103   101  0.0000000000e+00  0.0000000000e+00 -1.6733998869e+03  1.6733998869e+03  0.0000000000e+00 0. 9.
        6     2     1     2   103     0  7.2779893172e+01 -2.8791752886e+01 -9.1115918198e+02  9.3037001877e+02  1.7103052080e+02  6.587885e-13 9.
       -6     2     1     2     0   102 -7.2779893172e+01  2.8791752886e+01 -7.4133012258e+02  7.6394045045e+02  1.6705922092e+02  4.753421e-13 9.
       24     2     3     0     0     0  1.0665709825e+02 -4.4125252387e+01 -5.8316210589e+02  6.0023685905e+02  8.2966684301e+01  1.492803e-13 9.
        5     1     3     0   103     0 -3.3877205078e+01  1.5333499501e+01 -3.2799707608e+02  3.3013315972e+02  4.8000000000e+00 0. 9.
      -24     2     4     0     0     0 -9.4178999938e+01  1.9407595474e+01 -3.5312249823e+02  3.7500063018e+02  8.1753501997e+01  7.212604e-14 9.
       -5     1     4     0     0   102  2.1399106767e+01  9.3841574119e+00 -3.8820762436e+02  3.8893982027e+02  4.8000000000e+00 0. 9.
       -1     1     5     0     0   104  1.4502668740e+01  9.6205860869e+00 -1.7796295215e+01  2.4893776343e+01  3.3000000000e-01 0. 9.
        2     1     5     0   104     0  9.2154429509e+01 -5.3745838473e+01 -5.6536581068e+02  5.7534308271e+02  3.3000000000e-01 0. 9.
        1     1     7     0   105     0 -9.5639529145e+01 -3.8853541641e+00 -2.2109156600e+02  2.4092240446e+02  3.3000000000e-01 0. 9.
       -2     1     7     0     0   105  1.4605292071e+00  2.3292949638e+01 -1.3203093222e+02  1.3407822572e+02  3.3000000000e-01 0. 9.
#pdf   21   21  3.217013e-03  2.574461e-01  1.844849e+02  1.808559e+01  1.562844e-01
</event>
<event>
    12  9999  1.000000e+00  1.866215e+02  7.881492e-03  1.066311e-01
       21    -1     0     0   101   102  0.0000000000e+00  0.0000000000e+00  3.1441331802e+02  3.1441331802e+02  0.0000000000e+00 0. 9.
       21    -1     0     0   102   103  0.0000000000e+00  0.0000000000e+00 -1.2678903691e+02  1.2678903691e+02  0.0000000000e+00 0. 9.
        6     2     1     2   101     0 -4.7378686038e+01  6.0376350955e+01  1.7256178530e+02  2.5475014417e+02  1.7096789922e+02  2.080146e-13 9.
       -6     2     1     2     0   103  4.7378686038e+01 -6.0376350955e+01  1.5062495816e+01  1.8645221077e+02  1.6925573690e+02  1.461438e-13 9.
       24     2     3     0     0     0 -3.3647935118e+01  6.3043419456e+00  1.0115167905e+01  8.2923897100e+01  7.4847363504e+01  6.911209e-15 9.
        5     1     3     0   101     0 -1.3730750920e+01  5.4072009009e+01  1.6244661739e+02  1.7182624707e+02  4.8000000000e+00 0. 9.
      -24     2     4     0     0     0  8.0234524925e+01  1.7290302560e+00  1.7627074777e+01  1.1598092875e+02  8.1855320731e+01  5.758843e-15 9.
       -5     1     4     0     0   103 -3.2855838887e+01 -6.2105381211e+01 -2.5645789603e+00  7.0471282020e+01  4.8000000000e+00 0. 9.
      -13     1     5     0     0     0 -2.8007270146e+01 -1.0665041603e+01  3.8857935251e+01  4.9072401505e+01  1.0566000000e-01  7.699090e+05 9.
       14     1     5     0     0     0 -5.6406649717e+00  1.6969383548e+01 -2.8742767346e+01  3.3851495595e+01  0.0000000000e+00 0. 9.
        1     1     7     0   104     0  9.1313764245e+01 -1.5826132861e+01  7.7774723173e+00  9.3001440836e+01  3.3000000000e-01 0. 9.
       -2     1     7     0     0   104 -1.1079239320e+01  1.7555163117e+01  9.8496024593e+00  2.2979487910e+01  3.3000000000e-01 0. 9.
#pdf   21   21  4.837128e-02  1.950601e-02  1.858428e+02  1.978902e+00  4.720470e+00
</event>
<event>
    12  9999  1.000000e+00  1.874142e+02  7.881873e-03  1.065759e-01
       21    -1     0     0   101   102  0.0000000000e+00  0.0000000000e+00  8.0040803505e+02  8.0040803505e+02  0.0000000000e+00 0. 9.
       21    -1     0     0   102   103  0.0000000000e+00  0.0000000000e+00 -6.7530325183e+01  6.7530325183e+01  0.0000000000e+00 0. 9.
        6     2     1     2   101     0 -5.2500558281e+01  5.5953753168e+01  6.2699983787e+02  6.5528919191e+02  1.7432153404e+02  6.441639e-13 9.
       -6     2     1     2     0   103  5.2500558281e+01 -5.5953753168e+01  1.0587787200e+02  2.1264916832e+02  1.6769738787e+02  3.711550e-14 9.
       24     2     3     0     0     0 -7.5608260924e+01 -2.0249348973e+01  3.5488206418e+02  3.7171909219e+02  7.8148312628e+01  7.033711e-14 9.
        5     1     3     0   101     0  2.3107702643e+01  7.6203102142e+01  2.7211777369e+02  2.8357009972e+02  4.8000000000e+00 0. 9.
      -24     2     4     0     0     0  2.0397140547e+01 -5.9068061725e+01  1.3406224193e+02  1.6954781038e+02  8.2877596712e+01  4.237872e-14 9.
       -5     1     4     0     0   103  3.2103417734e+01  3.1143085574e+00 -2.8184369930e+01  4.3101357941e+01  4.8000000000e+00 0. 9.
       -3     1     5     0     0   104  1.3857335565e+01 -5.2018370137e+00  1.0163213064e+02  1.0270552486e+02  5.0000000000e-01 0. 9.
        4     1     5     0   104     0 -8.9465596489e+01 -1.5047511960e+01  2.5324993354e+02  2.6901356733e+02  1.5000000000e+00 0. 9.
        1     1     7     0   105     0 -1.3420721322e+01  1.6319420903e+01  2.9212252419e+01  3.6054179381e+01  3.3000000000e-01 0. 9.
       -2     1     7     0     0   105  3.3817861870e+01 -7.5387482628e+01  1.0484998951e+02  1.3349363100e+02  3.3000000000e-01 0. 9.
#pdf   21   21  1.231397e-01  1.038928e-02  1.844168e+02  6.132011e-01  7.875870e+00
</event>
<event>
    12  9999  1.000000e+00  1.940827e+02  7.885024e-03  1.061219e-01
       21    -1     0     0   101   102  0.0000000000e+00  0.0000000000e+00  3.1933427505e+02  3.1933427505e+02  0.0000000000e+00 0. 9.
       21    -1     0     0   103   101  0.0000000000e+00  0.0000000000e+00 -1.3513375464e+02  1.3513375464e+02  0.0000000000e+00 0. 9.
        6     2     1     2   103     0 -7.0190423452e+01  5.7723967334e+01  1.1871552315e+01  1.9627364499e+02  1.7356168359e+02  9.976219e-14 9.
       -6     2     1     2     0   102  7.0190423452e+01 -5.7723967334e+01  1.7232896809e+02  2.5819438471e+02  1.6943528293e+02  3.517119e-14 9.
       24     2     3     0     0     0 -1.1248769614e+02  6.3178947519e+01  1.0377168858e+01  1.5333078449e+02  8.2204517179e+01  1.539130e-13 9.
        5     1     3     0   103     0  4.2297272691e+01 -5.4549801849e+00  1.4943834566e+00  4.2942860499e+01  4.8000000000e+00 0. 9.
      -24     2     4     0     0     0  5.4893539918e+01 -4.1414323494e+01  1.9705424940e+02  2.2451384636e+02  8.2750486925e+01  3.762199e-14 9.
       -5     1     4     0     0   102  1.5296883533e+01 -1.6309643840e+01 -2.4725281305e+01  3.3680538351e+01  4.8000000000e+00 0. 9.
       -3     1     5     0     0   104 -9.2836825985e+01  6.6177606238e+00  7.7202230243e+00  9.3393376951e+01  5.0000000000e-01 0. 9.
        2     1     5     0   104     0 -1.9650870157e+01  5.6561186895e+01  2.6569458340e+00  5.9937407536e+01  3.3000000000e-01 0. 9.
        1     1     7     0   105     0  1.4473503991e+01 -6.0687285776e+01  1.2437750602e+02  1.3914848859e+02  3.3000000000e-01 0. 9.
       -2     1     7     0     0   105  4.0420035927e+01  1.9272962282e+01  7.2676743381e+01  8.5365357774e+01  3.3000000000e-01 0. 9.
#pdf   21   21  4.912835e-02  2.078981e-02  1.922682e+02  1.942138e+00  4.463768e+00
</event>
<event>
    12  9999  1.000000e+00  1.807571e+02  7.878617e-03  1.070496e-01
       21    -1     0     0   101   102  0.0000000000e+00  0.0000000000e+00  8.4860647263e+01  8.4860647263e+01  0.0000000000e+00 0. 9.
       21    -1     0     0   102   103  0.0000000000e+00  0.0000000000e+00 -4.4894353109e+02  4.4894353109e+02  0.0000000000e+00 0. 9.
        6     2     1     2   101     0  2.3598966492e+01 -5.3272456971e+01 -2.8308075910e+02  3.3607383191e+02  1.7151104463e+02  4.068281e-13 9.
       -6     2     1     2     0   103 -2.3598966492e+01  5.3272456971e+01 -8.1002124721e+01  1.9773034644e+02  1.7070758566e+02  4.681585e-13 9.
       24     2     3     0     0     0 -3.5363296257e+01 -6.2362642015e+01 -2.3827957130e+02  2.6131176719e+02  7.9793632150e+01  9.579848e-14 9.
        5     1     3     0   101     0  5.8962262749e+01  9.0901850443e+00 -4.4801187802e+01  7.4762064719e+01  4.8000000000e+00 0. 9.
      -24     2     4     0     0     0 -7.1420764551e+01  3.7891046738e+01 -1.7379101960e+01  1.1652418180e+02  8.2092598492e+01  1.468867e-13 9.
       -5     1     4     0     0   103  4.7821798059e+01  1.5381410233e+01 -6.3623022761e+01  8.1206164640e+01  4.8000000000e+00 0. 9.
       -1     1     5     0     0   104 -2.3536776387e+01 -7.6666431225e+01 -2.2390350857e+02  2.3783315911e+02  3.3000000000e-01 0. 9.
        2     1     5     0   104     0 -1.1826519870e+01  1.4303789210e+01 -1.4376062729e+01  2.3478608084e+01  3.3000000000e-01 0. 9.
        3     1     7     0   105     0 -4.0962957300e+01 -1.6669927127e+01 -2.9083072541e+01  5.2933216883e+01  5.0000000000e-01 0. 9.
       -4     1     7     0     0   105 -3.0457807251e+01  5.4560973865e+01  1.1703970581e+01  6.3590964916e+01  1.5000000000e+00 0. 9.
#pdf   21   21  1.305548e-02  6.906824e-02  1.803772e+02  6.584547e+00  1.325018e+00
</event>
<event>
    12  9999  1.000000e+00  2.994194e+02  7.924305e-03  1.008021e-01
       21    -1     0     0   101   102  0.0000000000e+00  0.0000000000e+00  2.6963568106e+02  2.6963568106e+02  0.0000000000e+00 0. 9.
       21    -1     0     0   102   103  0.0000000000e+00  0.0000000000e+00 -3.7912832108e+02  3.7912832108e+02  0.0000000000e+00 0. 9.
        6     2     1     2   101     0  2.1455379692e+02 -1.2055367661e+02 -1.6851816062e+02  3.4360468375e+02  1.7058513274e+02  2.835374e-13 9.
       -6     2     1     2     0   103 -2.1455379692e+02  1.2055367661e+02  5.9025520607e+01  3.0515931839e+02  1.7050418411e+02  4.114349e-14 9.
       24     2     3     0     0     0  1.0242097326e+02 -9.3532008159e+01 -3.0636443297e+01  1.6377601895e+02  8.1521165424e+01  2.124896e-14 9.
        5     1     3     0   101     0  1.1213282367e+02 -2.7021668454e+01 -1.3788171733e+02  1.7982866480e+02  4.8000000000e+00 0. 9.
      -24     2     4     0     0     0 -1.6979773338e+02  1.5202246040e+02  3.1207564871e+01  2.4359416397e+02  8.0138042704e+01  9.297682e-14 9.
       -5     1     4     0     0   103 -4.4756063547e+01 -3.1468783789e+01  2.7817955736e+01  6.1565154419e+01  4.8000000000e+00 0. 9.
      -11     1     5     0     0     0 -3.5923417666e+00 -1.7142864227e+00  1.5603007213e+01  1.6102718145e+01  5.1100000000e-04 0. 9.
       12     1     5     0     0     0  1.0601331502e+02 -9.1817721736e+01 -4.6239450510e+01  1.4767330081e+02  0.0000000000e+00 0. 9.
       13     1     7     0     0     0 -9.6991883646e+01  1.1362043135e+02  5.2887018087e+01  1.5847421165e+02  1.0566000000e-01  2.866598e+04 9.
      -14     1     7     0     0     0 -7.2805849732e+01  3.8402029053e+01 -2.1679453217e+01  8.5119952316e+01  0.0000000000e+00 0. 9.
#pdf   21   21  4.148241e-02  5.832743e-02  2.993964e+02  2.265624e+00  1.555332e+00
</event>
<event>
    12  9999  1.000000e+00  1.688125e+02  7.872468e-03  1.079758e-01
       21    -1     0     0   101   102  0.0000000000e+00  0.0000000000e+00  5.3312171707e+01  5.3312171707e+01  0.0000000000e+00 0. 9.
       21    -1     0     0   103   101  0.0000000000e+00  0.0000000000e+00 -5.5150456856e+02  5.5150456856e+02  0.0000000000e+00 0. 9.
        6     2     1     2   103     0  5.9586576594e+00  2.9440401141e+01 -3.0554151013e+02  3.5030971421e+02  1.6869806945e+02  1.909330e-13 9.
       -6     2     1     2     0   102 -5.9586576594e+00 -2.9440401141e+01 -1.9265088672e+02  2.5450702605e+02  1.6357634100e+02  6.420704e-14 9.
       24     2     3     0     0     0  1.4575833306e+01  7.7273817487e+01 -1.4380804917e+02  1.8136284732e+02  7.7640386389e+01  4.144428e-14 9.
        5     1     3     0   103     0 -8.6171756462e+00 -4.7833416346e+01 -1.6173346097e+02  1.6894686689e+02  4.8000000000e+00 0. 9.
      -24     2     4     0     0     0  2.5465964349e+01 -3.6505954809e+01 -4.2865743218e+01  1.0122278639e+02  8.0170945269e+01  1.838462e-13 9.
       -5     1     4     0     0   102 -3.1424622008e+01  7.0655536684e+00 -1.4978514350e+02  1.5328423967e+02  4.8000000000e+00 0. 9.
       -3     1     5     0     0   104 -1.3361899750e+01  6.0399559877e+01 -1.3344407081e+02  1.4708574789e+02  5.0000000000e-01 0. 9.
        4     1     5     0   104     0  2.7937733056e+01  1.6874257610e+01 -1.0363978357e+01  3.4277099433e+01  1.5000000000e+00 0. 9.
        3     1     7     0   105     0  2.2665307577e+00 -3.8443735264e+01 -6.0679878124e+01  7.1870408040e+01  5.0000000000e-01 0. 9.
       -4     1     7     0     0   105  2.3199433591e+01  1.9377804546e+00  1.7814134907e+01  2.9352378345e+01  1.5000000000e+00 0. 9.
#pdf   21   21  8.201873e-03  8.484686e-02  1.663113e+02  9.391249e+00  1.034600e+00
</event>
<event>
    12  9999  1.000000e+00  1.843111e+02  7.880370e-03  1.067940e-01
       21    -1     0     0   101   102  0.0000000000e+00  0.0000000000e+00  1.0382908322e+02  1.0382908322e+02  0.0000000000e+00 0. 9.
       21    -1     0     0   102   103  0.0000000000e+00  0.0000000000e+00 -4.2114929034e+02  4.2114929034e+02  0.0000000000e+00 0. 9.
        6     2     1     2   101     0  2.2853463547e+01  6.5471105953e+01 -3.4843927189e+01  1.8783249196e+02  1.7105028285e+02  2.109735e-13 9.
       -6     2     1     2     0   103 -2.2853463547e+01 -6.5471105953e+01 -2.8247627993e+02  3.3714588160e+02  1.7048680373e+02  1.025077e-13 9.
       24     2     3     0     0     0  5.5722934801e+01  5.2350432398e+01 -7.4273484851e+01  1.3463207624e+02  8.2241304498e+01  9.287806e-15 9.
        5     1     3     0   101     0 -3.2869471254e+01  1.3120673555e+01  3.9429557662e+01  5.3200415717e+01  4.8000000000e+00 0. 9.
      -24     2     4     0     0     0  2.0220578575e+01 -5.8674887222e+01 -7.5524716742e+01  1.2559553015e+02  7.8858355077e+01  7.028904e-15 9.
       -5     1     4     0     0   103 -4.3074042122e+01 -6.7962187307e+00 -2.0695156319e+02  2.1155035145e+02  4.8000000000e+00 0. 9.
       -3     1     5     0     0   104  3.8674388033e+01  7.3289497552e+01 -6.7165524321e+01  1.0667012889e+02  5.0000000000e-01 0. 9.
        4     1     5     0   104     0  1.7048546767e+01 -2.0939065154e+01 -7.1079605306e+00  2.7961947345e+01  1.5000000000e+00 0. 9.
       15     1     7     0     0     0 -1.1461358772e+01 -5.0109454376e+01 -7.7164388378e+01  9.2735214918e+01  1.7768200000e+00  9.187110e-03 9.
      -16     1     7     0     0     0  3.1681937347e+01 -8.5654328459e+00  1.6396716360e+00  3.2860315229e+01  0.0000000000e+00 0. 9.
#pdf   21   21  1.597371e-02  6.479220e-02  1.840503e+02  5.588369e+00  1.426979e+00
</event>
<event>
    12  9999  1.000000e+00  1.793857e+02  7.877931e-03  1.071499e-01
       21    -1     0     0   101   102  0.0000000000e+00  0.0000000000e+00  8.7985457735e+01  8.7985457735e+01  0.0000000000e+00 0. 9.
       21    -1     0     0   102   103  0.0000000000e+00  0.0000000000e+00 -6.7103174212e+02  6.7103174212e+02  0.0000000000e+00 0. 9.
        6     2     1     2   101     0 -2.9061849238e+01  5.0443405614e+01 -3.5884466826e+01  1.8332089908e+02  1.7008741526e+02  1.900361e-13 9.
       -6     2     1     2     0   103  2.9061849238e+01 -5.0443405614e+01 -5.4716181756e+02  5.7569630077e+02  1.6926620419e+02  2.372729e-13 9.
       24     2     3     0     0     0 -2.7779626699e+01  6.8379676162e+00 -8.2657930975e+01  1.1918140059e+02  8.0953117506e+01  1.343538e-13 9.
        5     1     3     0   101     0 -1.2822225390e+00  4.3605437998e+01  4.6773464148e+01  6.4139498486e+01  4.8000000000e+00 0. 9.
      -24     2     4     0     0     0  9.7077443351e+00 -1.1280511736e+01 -5.1418230758e+02  5.2075085772e+02  8.1095746794e+01  1.098987e-13 9.
       -5     1     4     0     0   103  1.9354104903e+01 -3.9162893879e+01 -3.2979509981e+01  5.4945443052e+01  4.8000000000e+00 0. 9.
       -1     1     5     0     0   104 -3.4824947667e+01 -2.1152216233e+01 -1.1418856185e+01  4.2316573682e+01  3.3000000000e-01 0. 9.
        2     1     5     0   104     0  7.0453209681e+00  2.7990183849e+01 -7.1239074790e+01  7.6864826913e+01  3.3000000000e-01 0. 9.
       11     1     7     0     0     0 -7.5703811971e+00  2.1884308871e+01 -5.0421581577e+01  5.5484858612e+01  5.1100000000e-04 0. 9.
      -12     1     7     0     0     0  1.7278125532e+01 -3.3164820607e+01 -4.6376072600e+02  4.6526599911e+02  0.0000000000e+00 0. 9.
#pdf   21   21  1.353622e-02  1.032357e-01  1.789977e+02  6.396447e+00  7.918816e-01
</event>
<event>
    12  9999  1.000000e+00  1.798541e+02  7.878166e-03  1.071155e-01
       21    -1     0     0   101   102  0.0000000000e+00  0.0000000000e+00  1.8930226582e+02  1.8930226582e+02  0.0000000000e+00 0. 9.
       21    -1     0     0   103   101  0.0000000000e+00  0.0000000000e+00 -1.9346152654e+02  1.9346152654e+02  0.0000000000e+00 0. 9.
        6     2     1     2   103     0  5.3300330373e+01 -4.5425553986e+00 -6.7465266591e+01  1.9346159256e+02  1.7324625702e+02  1.147729e-13 9.
       -6     2     1     2     0   102 -5.3300330373e+01  4.5425553986e+00  6.3306005875e+01  1.8930219980e+02  1.7019433728e+02  2.107620e-14 9.
       24     2     3     0     0     0  2.2121112147e+01 -2.8078996917e+01  2.5940476656e+01  9.2101932928e+01  8.0821309377e+01  7.144063e-14 9.
        5     1     3     0   103     0  3.1179218226e+01  2.3536441519e+01 -9.3405743246e+01  1.0135965963e+02  4.8000000000e+00 0. 9.
      -24     2     4     0     0     0 -6.5715990672e+01  3.0720358737e+01  9.5787507093e+01  1.4551277266e+02  8.2075505609e+01  1.468616e-13 9.
       -5     1     4     0     0   102  1.2415660299e+01 -2.6177803339e+01 -3.2481501218e+01  4.3789427145e+01  4.8000000000e+00 0. 9.
      -11     1     5     0     0     0  8.3176072350e+00  2.3960197893e+01  2.8564134965e+01  3.8199260199e+01  5.1100000000e-04 0. 9.
       12     1     5     0     0     0  1.3803504912e+01 -5.2039194810e+01 -2.6236583096e+00  5.3902672729e+01  0.0000000000e+00 0. 9.
        1     1     7     0   104     0 -3.4556518301e+01 -8.1469951864e+00 -2.2161931452e+00  3.5574525994e+01  3.3000000000e-01 0. 9.
       -2     1     7     0     0   104 -3.1159472371e+01  3.8867353924e+01  9.8003700239e+01  1.0993824667e+02  3.3000000000e-01 0. 9.
#pdf   21   21  2.912343e-02  2.976331e-02  1.784031e+02  3.296344e+00  3.229606e+00
</event>
<event>
    12  9999  1.000000e+00  2.243905e+02  7.898127e-03  1.042792e-01
       21    -1     0     0   101   102  0.0000000000e+00  0.0000000000e+00  6.8352584367e+02  6.8352584367e+02  0.0000000000e+00 0. 9.
       21    -1     0     0   102   103  0.0000000000e+00  0.0000000000e+00 -1.2069357126e+02  1.2069357126e+02  0.0000000000e+00 0. 9.
        6     2     1     2   101     0  6.9885100727e+01 -1.2734656404e+02  5.3217721707e+02  5.7742437668e+02  1.7060259592e+02  1.483450e-13 9.
       -6     2     1     2     0   103 -6.9885100727e+01  1.2734656404e+02  3.0655055337e+01  2.2679503824e+02  1.7145023265e+02  3.193552e-13 9.
       24     2     3     0     0     0  7.1478903265e+01 -1.5533664254e+01  3.5842015135e+02  3.7073808624e+02  6.0259400610e+01  8.379227e-14 9.
        5     1     3     0   101     0 -1.5938025384e+00 -1.1181289978e+02  1.7375706573e+02  2.0668629044e+02  4.8000000000e+00 0. 9.
      -24     2     4     0     0     0 -8.9777319339e+01  1.2187517573e+02  6.7161483530e+01  1.8458845403e+02  8.1539603654e+01  1.683120e-13 9.
       -5     1     4     0     0   103  1.9892218612e+01  5.4713883091e+00 -3.6506428193e+01  4.2206584211e+01  4.8000000000e+00 0. 9.
       -1     1     5     0     0   104  7.5428780890e-01  1.0270340606e+01  1.2618042660e+02  1.2660038627e+02  3.3000000000e-01 0. 9.
        2     1     5     0   104     0  7.0724615457e+01 -2.5804004860e+01  2.3223972475e+02  2.4413769998e+02  3.3000000000e-01 0. 9.
        1     1     7     0   105     0 -5.6791206242e+01  1.2388834995e+02  4.0646160599e+01  1.4221738161e+02  3.3000000000e-01 0. 9.
       -2     1     7     0     0   105 -3.2986113097e+01 -2.0131742252e+00  2.6515322931e+01  4.2371072417e+01  3.3000000000e-01 0. 9.
#pdf   21   21  1.051578e-01  1.856824e-02  2.240677e+02  7.533240e-01  4.909170e+00
</event>
<event>
    12  9999  1.000000e+00  1.969720e+02  7.886356e-03  1.059313e-01
        1    -1     0     0   101     0  0.0000000000e+00  0.0000000000e+00  1.3058757363e+03  1.3058757363e+03  0.0000000000e+00 0. 9.
       -1    -1     0     0     0   102  0.0000000000e+00  0.0000000000e+00 -5.0354499545e+01  5.0354499545e+01  0.0000000000e+00 0. 9.
        6     2     1     2   101     0 -6.1161609783e+01 -7.2097209381e+01  1.0650263667e+03  1.0833903506e+03  1.7468468696e+02  7.441310e-14 9.
       -6     2     1     2     0   102  6.1161609783e+01  7.2097209381e+01  1.9049487005e+02  2.7283988526e+02  1.7092266485e+02  2.142194e-14 9.
       24     2     3     0     0     0 -7.6202066655e+01 -2.1163555047e+01  3.8779253743e+02  4.0406042191e+02  8.1407133847e+01  1.109031e-13 9.
        5     1     3     0   101     0  1.5040456872e+01 -5.0933654334e+01  6.7723382926e+02  6.7932992867e+02  4.8000000000e+00 0. 9.
      -24     2     4     0     0     0  3.1287007460e+01  8.9278881173e+01  2.0160494313e+02  2.3631351898e+02  7.9056503217e+01  3.495731e-14 9.
       -5     1     4     0     0   102  2.9874602323e+01 -1.7181671791e+01 -1.1110073078e+01  3.6526366275e+01  4.8000000000e+00 0. 9.
       -1     1     5     0     0   103 -5.9936857928e+01 -5.1375769971e+01  2.5788014055e+02  2.6969273714e+02  3.3000000000e-01 0. 9.
        2     1     5     0   103     0 -1.6265208728e+01  3.0212214924e+01  1.2991239689e+02  1.3436768477e+02  3.3000000000e-01 0. 9.
        1     1     7     0   104     0  3.3168803765e+01  9.0759635606e+01  1.1731161813e+02  1.5198554420e+02  3.3000000000e-01 0. 9.
       -2     1     7     0     0   104 -1.8817963047e+00 -1.4807544337e+00  8.4293325000e+01  8.4327974780e+01  3.3000000000e-01 0. 9.
#pdf    1   -1  2.009040e-01  7.746846e-03  1.953287e+02  2.196338e-01  6.240311e-01
</event>
<event>
    12  9999  1.000000e+00  1.727676e+02  7.874550e-03  1.076477e-01
       21    -1     0     0   101   102  0.0000000000e+00  0.0000000000e+00  6.4443045929e+02  6.4443045929e+02  0.0000000000e+00 0. 9.
       21    -1     0     0   102   103  0.0000000000e+00  0.0000000000e+00 -1.3500965949e+02  1.3500965949e+02  0.0000000000e+00 0. 9.
        6     2     1     2   101     0 -6.6527150638e+00 -2.2962095303e+01  5.7048456711e+02  5.9601526002e+02  1.7090942757e+02  4.553556e-14 9.
       -6     2     1     2     0   103  6.6527150638e+00  2.2962095303e+01 -6.1063767311e+01  1.8342485876e+02  1.7130201019e+02  4.101367e-13 9.
       24     2     3     0     0     0  2.9508031989e+01 -6.9355790719e+01  4.3034959828e+02  4.4395992769e+02  7.8858677376e+01  1.818289e-13 9.
        5     1     3     0   101     0 -3.6160747053e+01  4.6393695416e+01  1.4013496883e+02  1.5205533233e+02  4.8000000000e+00 0. 9.
      -24     2     4     0     0     0  2.3099876976e+01 -6.1065559802e+00  1.1633981020e+01  1.0327812935e+02  9.9800441613e+01  2.914782e-14 9.
       -5     1     4     0     0   103 -1.6447161912e+01  2.9068651284e+01 -7.2697748331e+01  8.0146729408e+01  4.8000000000e+00 0. 9.
      -11     1     5     0     0     0  3.3111371031e+01 -3.1920770334e+01  8.5672837832e+01  9.7237511345e+01  5.1100000000e-04 0. 9.
       12     1     5     0     0     0 -3.6033390411e+00 -3.7435020385e+01  3.4467676045e+02  3.4672241635e+02  0.0000000000e+00 0. 9.
        3     1     7     0   104     0 -3.4871889279e+01  1.8333224421e+01  7.1449853320e-01  3.9407058856e+01  5.0000000000e-01 0. 9.
       -4     1     7     0     0   104  5.7971766254e+01 -2.4439780401e+01  1.0919482487e+01  6.3871070497e+01  1.5000000000e+00 0. 9.
#pdf   21   21  9.914315e-02  2.077072e-02  1.725733e+02  8.400602e-01  4.475471e+00
</event>
<event>
    12  9999  1.000000e+00  2.224406e+02  7.897338e-03  1.043882e-01
       21    -1     0     0   101   102  0.0000000000e+00  0.0000000000e+00  4.3932550668e+02  4.3932550668e+02  0.0000000000e+00 0. 9.
       21    -1     0     0   103   101  0.0000000000e+00  0.0000000000e+00 -1.1373953960e+02  1.1373953960e+02  0.0000000000e+00 0. 9.
        6     2     1     2   103     0 -5.6975950954e+00  1.4094184902e+02  1.9083252329e+02  2.9383342155e+02  1.7327423432e+02  8.355538e-16 9.
       -6     2     1     2     0   102  5.6975950954e+00 -1.4094184902e+02  1.3475344379e+02  2.5923162473e+02  1.7072046524e+02  2.131276e-13 9.
       24     2     3     0     0     0 -1.3336376318e+01  1.2139702716e+02  7.4063967120e+01  1.7509721498e+02  1.0128408726e+02  5.477589e-14 9.
        5     1     3     0   103     0  7.6387812222e+00  1.9544821864e+01  1.1676855617e+02  1.1873620657e+02  4.8000000000e+00 0. 9.
      -24     2     4     0     0     0  5.6547890237e+01 -8.9018963914e+01  1.3083964903e+02  1.8629263445e+02  8.0398333721e+01  9.997699e-14 9.
       -5     1     4     0     0   102 -5.0850295142e+01 -5.1922885109e+01  3.9137947548e+00  7.2938990282e+01  4.8000000000e+00 0. 9.
       -1     1     5     0     0   104 -3.3728981796e+01  2.9815052195e+01 -1.3251418398e+01  4.6928568483e+01  3.3000000000e-01 0. 9.
        2     1     5     0   104     0  2.0392605478e+01  9.1581974964e+01  8.7315385518e+01  1.2816864650e+02  3.3000000000e-01 0. 9.
        3     1     7     0   105     0  5.4584347564e+01 -6.8572452373e+01  4.5990714396e+01  9.8979937533e+01  5.0000000000e-01 0. 9.
       -4     1     7     0     0   105  1.9635426732e+00 -2.0446511541e+01  8.4848934637e+01  8.7312696918e+01  1.5000000000e+00 0. 9.
#pdf   21   21  6.758854e-02  1.749839e-02  2.214555e+02  1.337572e+00  5.165882e+00
</event>
<event>
    12  9999  1.000000e+00  2.555320e+02  7.909900e-03  1.026830e-01
       21    -1     0     0   101   102  0.0000000000e+00  0.0000000000e+00  7.8112135852e+01  7.8112135852e+01  0.0000000000e+00 0. 9.
       21    -1     0     0   102   103  0.0000000000e+00  0.0000000000e+00 -8.6274151819e+02  8.6274151819e+02  0.0000000000e+00 0. 9.
        6     2     1     2   101     0  1.6227767281e+02  1.9266539349e+01 -3.3979432542e+02  4.3562631810e+02  2.1818538633e+02  6.468382e-14 9.
       -6     2     1     2     0   103 -1.6227767281e+02 -1.9266539349e+01 -4.4483505692e+02  5.0522733594e+02  1.7513192309e+02  4.291258e-15 9.
       24     2     3     0     0     0  1.9867895258e+02 -2.4784313568e+01 -2.6200135065e+02  3.3898099884e+02  7.8586394725e+01  2.330225e-14 9.
        5     1     3     0   101     0 -3.6401279773e+01  4.4050852917e+01 -7.7792974764e+01  9.6645319258e+01  4.8000000000e+00 0. 9.
      -24     2     4     0     0     0 -1.5101907260e+02  2.1569408919e+01 -2.3572867276e+02  2.9181962604e+02  7.9490171025e+01  1.501065e-13 9.
       -5     1     4     0     0   103 -1.1258600209e+01 -4.0835948268e+01 -2.0910638416e+02  2.1340770990e+02  4.8000000000e+00 0. 9.
       -3     1     5     0     0   104  6.9029370494e+01  2.9256732025e+00 -3.8456421570e+01  7.9074394809e+01  5.0000000000e-01 0. 9.
        4     1     5     0   104     0  1.2964958209e+02 -2.7709986771e+01 -2.2354492908e+02  2.5990660403e+02  1.5000000000e+00 0. 9.
        1     1     7     0   105     0 -7.6886283661e+00 -2.0631551136e+01 -3.8952290078e+01  4.4745566381e+01  3.3000000000e-01 0. 9.
       -2     1     7     0     0   105 -1.4333044423e+02  4.2200960055e+01 -1.9677638268e+02  2.4707405966e+02  3.3000000000e-01 0. 9.
#pdf   21   21  1.201725e-02  1.327295e-01  2.395338e+02  7.035612e+00  5.295086e-01
</event>
<event>
    12  9999  1.000000e+00  1.720670e+02  7.874185e-03  1.077018e-01
       21    -1     0     0   101   102  0.0000000000e+00  0.0000000000e+00  1.9083168165e+02  1.9083168165e+02  0.0000000000e+00 0. 9.
       21    -1     0     0   103   101  0.0000000000e+00  0.0000000000e+00 -3.3760752868e+02  3.3760752868e+02  0.0000000000e+00 0. 9.
        6     2     1     2   103     0  1.0355172155e+00 -1.8783685266e+01 -2.6766329887e+02  3.1829193458e+02  1.7120810416e+02  1.834450e-13 9.
       -6     2     1     2     0   102 -1.0355172155e+00  1.8783685266e+01  1.2088745184e+02  2.1014727576e+02  1.7086311003e+02  1.411111e-13 9.
       24     2     3     0     0     0  8.7544163495e+00 -5.6152972668e+01 -8.0709736036e+01  1.2742360379e+02  8.0578639636e+01  7.436044e-14 9.
        5     1     3     0   103     0 -7.7188991340e+00  3.7369287402e+01 -1.8695356283e+02  1.9086833079e+02  4.8000000000e+00 0. 9.
      -24     2     4     0     0     0  6.0470919948e+01 -4.1494154365e+00  1.0276899832e+02  1.4188097896e+02  7.6777570737e+01  1.013193e-13 9.
       -5     1     4     0     0   102 -6.1506437164e+01  2.2933100703e+01  1.8118453517e+01  6.8266296796e+01  4.8000000000e+00 0. 9.
       -1     1     5     0     0   104 -6.0385660500e+00  1.9022647444e+01 -2.8156909276e+01  3.4514429384e+01  3.3000000000e-01 0. 9.
        2     1     5     0   104     0  1.4792982400e+01 -7.5175620112e+01 -5.2552826760e+01  9.2909174402e+01  3.3000000000e-01 0. 9.
        3     1     7     0   105     0  3.6539834710e+01 -4.3877896185e+00  1.1067301864e+02  1.1663266812e+02  5.0000000000e-01 0. 9.
       -4     1     7     0     0   105  2.3931085238e+01  2.3837418195e-01 -7.9040203237e+00  2.5248310839e+01  1.5000000000e+00 0. 9.
#pdf   21   21  2.935872e-02  5.193962e-02  1.718956e+02  3.275358e+00  1.840775e+00
</event>
<event>
    12  9999  1.000000e+00  2.708186e+02  7.915174e-03  1.019853e-01
       -2    -1     0     0     0   101  0.0000000000e+00  0.0000000000e+00  7.1152837075e+01  7.1152837075e+01  0.0000000000e+00 0. 9.
        2    -1     0     0   102     0  0.0000000000e+00  0.0000000000e+00 -1.1367725079e+03  1.1367725079e+03  0.0000000000e+00 0. 9.
       -6     2     1     2     0   101  5.5837350156e+01 -2.0296672855e+02 -7.1760232806e+02  7.6707762978e+02  1.7070936208e+02  6.061065e-13 9.
        6     2     1     2   102     0 -5.5837350156e+01  2.0296672855e+02 -3.4801734275e+02  4.4084771518e+02  1.7005097634e+02  6.826433e-13 9.
      -24     2     3     0     0     0  6.9492034046e+01 -2.2275757609e+02 -6.4570734515e+02  6.9111674112e+02  7.9084093022e+01  1.091534e-14 9.
       -5     1     3     0     0   101 -1.3654683891e+01  1.9790847545e+01 -7.1894982906e+01  7.5960888658e+01  4.8000000000e+00 0. 9.
       24     2     4     0     0     0 -1.0316954891e+02  1.5066603727e+02 -2.7750107914e+02  3.4099140451e+02  7.6968035045e+01  8.777844e-14 9.
        5     1     4     0   102     0  4.7332198751e+01  5.2300691281e+01 -7.0516263610e+01  9.9856310670e+01  4.8000000000e+00 0. 9.
       13     1     5     0     0     0  6.8541761379e+00 -8.0871952040e+01 -1.3643220831e+02  1.5874826294e+02  1.0566000000e-01  1.854418e+06 9.
      -14     1     5     0     0     0  6.2637857908e+01 -1.4188562405e+02 -5.0927513684e+02  5.3236847818e+02  0.0000000000e+00 0. 9.
       -1     1     7     0     0   103 -2.2796025330e+01 -4.6539338175e+00 -3.1493676203e+01  3.9157099121e+01  3.3000000000e-01 0. 9.
        2     1     7     0   103     0 -8.0373523577e+01  1.5531997108e+02 -2.4600740294e+02  3.0183430539e+02  3.3000000000e-01 0. 9.
#pdf   -2    2  1.094659e-02  1.748881e-01  2.706116e+02  5.021519e-01  4.759659e-01
</event>
<event>
    12  9999  1.000000e+00  1.874296e+02  7.881881e-03  1.065748e-01
       21    -1     0     0   101   102  0.0000000000e+00  0.0000000000e+00  2.5688770347e+02  2.5688770347e+02  0.0000000000e+00 0. 9.
       21    -1     0     0   103   101  0.0000000000e+00  0.0000000000e+00 -1.7110385432e+02  1.7110385432e+02  0.0000000000e+00 0. 9.
        6     2     1     2   103     0  6.3372366024e+01  4.3074950447e+01 -5.3003155936e+01  1.9472806778e+02  1.7099174749e+02  7.714409e-14 9.
       -6     2     1     2     0   102 -6.3372366024e+01 -4.3074950447e+01  1.3878700509e+02  2.3326349001e+02  1.7110965741e+02  2.823260e-14 9.
       24     2     3     0     0     0  3.8649669804e+01 -3.9763778819e+01 -4.8566052472e+01  1.0803207789e+02  7.8976663131e+01  8.222112e-14 9.
        5     1     3     0   103     0  2.4722696219e+01  8.2838729266e+01 -4.4371034642e+00  8.6695989883e+01  4.8000000000e+00 0. 9.
      -24     2     4     0     0     0 -8.0483310131e+01 -8.6699522289e+00  1.3556283756e+02  1.9440575505e+02  1.1341773841e+02  4.105914e-14 9.
       -5     1     4     0     0   102  1.7110944108e+01 -3.4404998218e+01  3.2241675309e+00  3.8857734969e+01  4.8000000000e+00 0. 9.
       -3     1     5     0     0   104  9.4929267932e-01 -3.7789526320e+01  9.2925665214e+00  3.8930081539e+01  5.0000000000e-01 0. 9.
        4     1     5     0   104     0  3.7700377125e+01 -1.9742524988e+00 -5.7858618993e+01  6.9101996354e+01  1.5000000000e+00 0. 9.
        1     1     7     0   105     0  1.1960416255e+01  3.4922153559e+01  3.1240506630e+01  4.8359968163e+01  3.3000000000e-01 0. 9.
       -2     1     7     0     0   105 -9.2443726387e+01 -4.3592105788e+01  1.0432233093e+02  1.4604578688e+02  3.3000000000e-01 0. 9.
#pdf   21   21  3.952119e-02  2.632367e-02  1.873758e+02  2.442591e+00  3.615314e+00
</event>
<event>
    12  9999  1.000000e+00  1.948128e+02  7.885363e-03  1.060734e-01
       21    -1     0     0   101   102  0.0000000000e+00  0.0000000000e+00  2.1814496992e+02  2.1814496992e+02  0.0000000000e+00 0. 9.
       21    -1     0     0   103   101  0.0000000000e+00  0.0000000000e+00 -2.9777701886e+02  2.9777701886e+02  0.0000000000e+00 0. 9.
        6     2     1     2   103     0 -9.1813165459e+01  1.7368661944e+01 -2.0610552527e+02  2.8337568881e+02  1.7056073901e+02  5.482880e-14 9.
       -6     2     1     2     0   102  9.1813165459e+01 -1.7368661944e+01  1.2647347633e+02  2.3254629996e+02  1.7132108347e+02  5.643308e-15 9.
       24     2     3     0     0     0 -7.7954391103e+01  7.4736099054e+01 -1.3162608189e+02  1.8822677419e+02  8.0259089784e+01  8.045410e-14 9.
        5     1     3     0   103     0 -1.3858774357e+01 -5.7367437110e+01 -7.4479443385e+01  9.5148914624e+01  4.8000000000e+00 0. 9.
      -24     2     4     0     0     0  1.1640335819e+02 -3.0886548231e+00  4.4498252298e+01  1.4564650976e+02  7.5322836912e+01  2.090704e-13 9.
       -5     1     4     0     0   102 -2.4590192731e+01 -1.4280007121e+01  8.1975224036e+01  8.6899790205e+01  4.8000000000e+00 0. 9.
       -1     1     5     0     0   104  1.1535712255e+01  5.4208312827e+00  2.2101873590e+00  1.2940320598e+01  3.3000000000e-01 0. 9.
        2     1     5     0   104     0 -8.9490103358e+01  6.9315267771e+01 -1.3383626925e+02  1.7528645359e+02  3.3000000000e-01 0. 9.
        3     1     7     0   105     0  9.7264110860e+01 -3.1405708815e+01  4.4394644872e+01  1.1143500483e+02  5.0000000000e-01 0. 9.
       -4     1     7     0     0   105  1.9139247331e+01  2.8317053992e+01  1.0360742651e-01  3.4211504931e+01  1.5000000000e+00 0. 9.
#pdf   21   21  3.356076e-02  4.581185e-02  1.944795e+02  2.868933e+00  2.091435e+00
</event>
<event>
    12  9999  1.000000e+00  1.869706e+02  7.881660e-03  1.066068e-01
       -2    -1     0     0     0   101  0.0000000000e+00  0.0000000000e+00  3.0938412044e+01  3.0938412044e+01  0.0000000000e+00 0. 9.
        2    -1     0     0   102     0  0.0000000000e+00  0.0000000000e+00 -1.2146545378e+03  1.2146545378e+03  0.0000000000e+00 0. 9.
       -6     2     1     2     0   101  7.0109550351e+01  2.9780331911e+01 -7.5806696867e+02  7.8092494203e+02  1.7139433735e+02  1.692570e-14 9.
        6     2     1     2   102     0 -7.0109550351e+01 -2.9780331911e+01 -4.2564915707e+02  4.6466800780e+02  1.7010859866e+02  6.027598e-14 9.
      -24     2     3     0     0     0  4.8090211213e+01 -5.7159020902e-01 -1.8530281743e+02  2.0691457329e+02  7.8508033751e+01  1.128150e-14 9.
       -5     1     3     0     0   101  2.2019339138e+01  3.0351922120e+01 -5.7276415124e+02  5.7401036874e+02  4.8000000000e+00 0. 9.
       24     2     4     0     0     0 -1.0534450097e+02 -4.6639313991e+01 -3.6959347263e+02  3.9617708300e+02  8.4168025934e+01  8.014676e-14 9.
        5     1     4     0   102     0  3.5234950617e+01  1.6858982080e+01 -5.6055684444e+01  6.8490924802e+01  4.8000000000e+00 0. 9.
       13     1     5     0     0     0 -1.6683283833e+01  2.0867739450e+00 -9.0005467139e+00  1.9071119268e+01  1.0566000000e-01  6.690831e+04 9.
      -14     1     5     0     0     0  6.4773495046e+01 -2.6583641540e+00 -1.7630227072e+02  1.8784345403e+02  0.0000000000e+00 0. 9.
       -1     1     7     0     0   103 -6.2666019758e+00  1.6897841026e+01 -1.8285608360e+01  2.5676442603e+01  3.3000000000e-01 0. 9.
        2     1     7     0   103     0 -9.9077898992e+01 -6.3537155017e+01 -3.5130786427e+02  3.7050064040e+02  3.3000000000e-01 0. 9.
#pdf   -2    2  4.759756e-03  1.868699e-01  1.863844e+02  7.779144e-01  4.692103e-01
</event>
<event>
    12  9999  1.000000e+00  1.833042e+02  7.879876e-03  1.068658e-01
       21    -1     0     0   101   102  0.0000000000e+00  0.0000000000e+00  1.1755865058e+03  1.1755865058e+03  0.0000000000e+00 0. 9.
       21    -1     0     0   103   101  0.0000000000e+00  0.0000000000e+00 -2.9568273070e+01  2.9568273070e+01  0.0000000000e+00 0. 9.
        6     2     1     2   103     0 -6.5777934771e+01  1.9718989876e+00  4.5947111656e+02  4.9425377595e+02  1.6983068922e+02  5.462780e-14 9.
       -6     2     1     2     0   102  6.5777934771e+01 -1.9718989876e+00  6.8654711615e+02  7.1090100290e+02  1.7234462028e+02  8.053965e-14 9.
       24     2     3     0     0     0 -7.5702700400e+00  3.8244708080e+01  3.7528454520e+02  3.8556031842e+02  7.9361845933e+01  8.647338e-15 9.
        5     1     3     0   103     0 -5.8207664731e+01 -3.6272809092e+01  8.4186571363e+01  1.0869345753e+02  4.8000000000e+00 0. 9.
      -24     2     4     0     0     0  7.2415979104e+01 -4.8892386916e+01  2.3862608383e+02  2.6045468310e+02  5.7093734679e+01  4.703243e-14 9.
       -5     1     4     0     0   102 -6.6380443334e+00  4.6920487929e+01  4.4792103232e+02  4.5044631980e+02  4.8000000000e+00 0. 9.
       -3     1     5     0     0   104 -2.8792357590e+01  1.1314209198e+01  3.1232803897e+02  3.1385675891e+02  5.0000000000e-01 0. 9.
        4     1     5     0   104     0  2.1222087550e+01  2.6930498882e+01  6.2956506228e+01  7.1703559510e+01  1.5000000000e+00 0. 9.
       13     1     7     0     0     0 -4.4408892278e+00 -1.2795803746e+00  6.0702174919e+01  6.0877943682e+01  1.0566000000e-01  1.013905e+06 9.
      -14     1     7     0     0     0  7.6856868332e+01 -4.7612806542e+01  1.7792390891e+02  1.9957673942e+02  0.0000000000e+00 0. 9.
#pdf   21   21  1.808595e-01  4.548965e-03  1.821348e+02  3.276566e-01  1.432226e+01
</event>
<event>
    12  9999  1.000000e+00  2.741525e+02  7.916286e-03  1.018396e-01
       21    -1     0     0   101   102  0.0000000000e+00  0.0000000000e+00  8.4417754905e+02  8.4417754905e+02  0.0000000000e+00 0. 9.
       21    -1     0     0   102   103  0.0000000000e+00  0.0000000000e+00 -8.9255354696e+01  8.9255354696e+01  0.0000000000e+00 0. 9.
        6     2     1     2   101     0 -2.0878320911e+02 -5.0888596827e+01  3.5433600765e+02  4.4808830773e+02  1.7043781129e+02  1.073409e-13 9.
       -6     2     1     2     0   103  2.0878320911e+02  5.0888596827e+01  4.0058618671e+02  4.8534459602e+02  1.7002942747e+02  3.676721e-13 9.
       24     2     3     0     0     0 -1.9105595506e+02 -1.7543612053e+01  2.0186965681e+02  2.9094133295e+02  8.4174488951e+01  2.823587e-14 9.
        5     1     3     0   101     0 -1.7727254052e+01 -3.3344984773e+01  1.5246635084e+02  1.5714697478e+02  4.8000000000e+00 0. 9.
      -24     2     4     0     0     0  1.0373381671e+02  7.1223442827e+01  3.1443865307e+02  3.4789162821e+02  7.9520028283e+01  5.377137e-15 9.
       -5     1     4     0     0   103  1.0504939240e+02 -2.0334846000e+01  8.6147533639e+01  1.3745296781e+02  4.8000000000e+00 0. 9.
       -3     1     5     0     0   104 -8.4678767290e+01 -4.0016949500e+01  1.3141613373e+02  1.6137626865e+02  5.0000000000e-01 0. 9.
        4     1     5     0   104     0 -1.0637718777e+02  2.2473337447e+01  7.0453523076e+01  1.2956506430e+02  1.5000000000e+00 0. 9.
        1     1     7     0   105     0  5.8045097244e+01  8.3284882389e+01  2.0919691066e+02  2.3252754950e+02  3.3000000000e-01 0. 9.
       -2     1     7     0     0   105  4.5688719461e+01 -1.2061439562e+01  1.0524174241e+02  1.1536407871e+02  3.3000000000e-01 0. 9.
#pdf   21   21  1.298735e-01  1.373159e-02  2.740257e+02  5.385989e-01  6.312062e+00
</event>
<event>
    12  9999  1.000000e+00  1.723553e+02  7.874335e-03  1.076795e-01
       21    -1     0     0   101   102  0.0000000000e+00  0.0000000000e+00  9.1680297215e+01  9.1680297215e+01  0.0000000000e+00 0. 9.
       21    -1     0     0   103   101  0.0000000000e+00  0.0000000000e+00 -1.4018870100e+03  1.4018870100e+03  0.0000000000e+00 0. 9.
        6     2     1     2   103     0 -1.9824207109e+01  1.2263563035e+01 -1.3097575892e+03  1.3210250497e+03  1.7058383610e+02  6.458067e-15 9.
       -6     2     1     2     0   102  1.9824207109e+01 -1.2263563035e+01 -4.4912352622e-01  1.7254225752e+02  1.7095974600e+02  4.165361e-13 9.
       24     2     3     0     0     0 -2.2750367810e+01 -6.2509323229e+01 -7.4285855515e+02  7.4918844558e+02  7.0848424835e+01  6.253739e-15 9.
        5     1     3     0   103     0  2.9261607013e+00  7.4772886264e+01 -5.6689903407e+02  5.7183660408e+02  4.8000000000e+00 0. 9.
      -24     2     4     0     0     0 -3.8003894186e+01 -1.2050433481e+00  4.5050557389e+01  9.7979256503e+01  7.8260040129e+01  7.857204e-14 9.
       -5     1     4     0     0   102  5.7828101295e+01 -1.1058519687e+01 -4.5499680916e+01  7.4563001016e+01  4.8000000000e+00 0. 9.
       -3     1     5     0     0   104 -3.0734491440e+01 -2.1874920175e+01 -5.7698499926e+02  5.7821713955e+02  5.0000000000e-01 0. 9.
        4     1     5     0   104     0  7.9841236300e+00 -4.0634403054e+01 -1.6587355589e+02  1.7097130603e+02  1.5000000000e+00 0. 9.
       13     1     7     0     0     0 -3.5814189100e+01 -3.6643778504e+01  3.0326820751e+01  5.9541161097e+01  1.0566000000e-01  4.199197e+05 9.
      -14     1     7     0     0     0 -2.1897050860e+00  3.5438735156e+01  1.4723736639e+01  3.8438095406e+01  0.0000000000e+00 0. 9.
#pdf   21   21  1.410466e-02  2.156749e-01  1.721692e+02  6.187361e+00  2.355541e-01
</event>
<event>
    12  9999  1.000000e+00  2.610973e+02  7.911855e-03  1.024232e-01
       21    -1     0     0   101   102  0.0000000000e+00  0.0000000000e+00  5.4396635737e+02  5.4396635737e+02  0.0000000000e+00 0. 9.
       21    -1     0     0   102   103  0.0000000000e+00  0.0000000000e+00 -2.6507241887e+02  2.6507241887e+02  0.0000000000e+00 0. 9.
        6     2     1     2   101     0 -7.4861364603e+00  2.0782279661e+02  4.3139509613e+02  5.0095532467e+02  1.4699711330e+02  7.059140e-14 9.
       -6     2     1     2     0   103  7.4861364603e+00 -2.0782279661e+02 -1.5250115762e+02  3.0808345157e+02  1.6855993896e+02  1.122757e-13 9.
       24     2     3     0     0     0 -1.6648962905e+01  3.8616620338e+01  1.8789418755e+02  2.0425611679e+02  6.8175539592e+01  5.850608e-14 9.
        5     1     3     0   101     0  9.1628264448e+00  1.6920617627e+02  2.4350090858e+02  2.9669920788e+02  4.8000000000e+00 0. 9.
      -24     2     4     0     0     0 -1.4451945193e+01 -1.1843476661e+02 -2.1321073324e+01  1.4776266735e+02  8.4519613305e+01  9.219010e-14 9.
       -5     1     4     0     0   103  2.1938081654e+01 -8.9388029999e+01 -1.3118008430e+02  1.6032078421e+02  4.8000000000e+00 0. 9.
      -13     1     5     0     0     0 -1.9356573031e+01  4.9572291374e+01  8.1955179768e+01  9.7717714087e+01  1.0566000000e-01  2.429217e+06 9.
       14     1     5     0     0     0  2.7076101256e+00 -1.0955671036e+01  1.0593900779e+02  1.0653840271e+02  0.0000000000e+00 0. 9.
        3     1     7     0   104     0 -7.7198075055e-01 -1.4614382007e+01  2.8314163627e+01  3.1876605491e+01  5.0000000000e-01 0. 9.
       -2     1     7     0     0   104 -1.3679964443e+01 -1.0382038461e+02 -4.9635236951e+01  1.1588606186e+02  3.3000000000e-01 0. 9.
#pdf   21   21  8.368713e-02  4.078037e-02  2.546655e+02  1.012305e+00  2.326894e+00
</event>
<event>
    12  9999  1.000000e+00  2.841267e+02  7.919534e-03  1.014164e-01
        2    -1     0     0   101     0  0.0000000000e+00  0.0000000000e+00  3.1388705946e+02  3.1388705946e+02  0.0000000000e+00 0. 9.
       -2    -1     0     0     0   102  0.0000000000e+00  0.0000000000e+00 -2.6375343619e+02  2.6375343619e+02  0.0000000000e+00 0. 9.
        6     2     1     2   101     0 -7.6758636706e+01 -2.1317378726e+02  7.0639886822e+01  2.9283238640e+02  1.7153967772e+02  2.337184e-14 9.
       -6     2     1     2     0   102  7.6758636706e+01  2.1317378726e+02 -2.0506263544e+01  2.8480810925e+02  1.7134818460e+02  1.233062e-13 9.
       24     2     3     0     0     0 -4.5490101674e+01 -2.1896181816e+02  2.7497346574e+01  2.3902215165e+02  7.9761254704e+01  1.476196e-13 9.
        5     1     3     0   101     0 -3.1268535032e+01  5.7880308948e+00  4.3142540248e+01  5.3810234749e+01  4.8000000000e+00 0. 9.
      -24     2     4     0     0     0 -1.7113677409e+01  1.1183391983e+02 -4.1159346029e+01  1.4505343168e+02  8.0911696904e+01  2.936395e-14 9.
       -5     1     4     0     0   102  9.3872314115e+01  1.0133986743e+02  2.0653082485e+01  1.3975467757e+02  4.8000000000e+00 0. 9.
      -15     1     5     0     0     0  7.0293798981e+00 -1.1476713755e+02  3.9809761131e+01  1.2169175081e+02  1.7768200000e+00  7.853039e-03 9.
       16     1     5     0     0     0 -5.2519481572e+01 -1.0419468060e+02 -1.2312414557e+01  1.1733040084e+02  0.0000000000e+00 0. 9.
        3     1     7     0   103     0 -1.8150406500e+00  1.6649663767e+01  2.3573165770e+01  2.8921442227e+01  5.0000000000e-01 0. 9.
       -4     1     7     0     0   103 -1.5298636759e+01  9.5184256065e+01 -6.4732511799e+01  1.1613198945e+02  1.5000000000e+00 0. 9.
#pdf    2   -2  4.829032e-02  4.057745e-02  2.840689e+02  6.240268e-01  1.901080e-01
</event>
<event>
    12  9999  1.000000e+00  2.139201e+02  7.893807e-03  1.048789e-01
       21    -1     0     0   101   102  0.0000000000e+00  0.0000000000e+00  5.1478879328e+01  5.1478879328e+01  0.0000000000e+00 0. 9.
       21    -1     0     0   102   103  0.0000000000e+00  0.0000000000e+00 -1.1958605130e+03  1.1958605130e+03  0.0000000000e+00 0. 9.
        6     2     1     2   101     0  7.9703921110e+01  1.0048690543e+02 -2.5327391554e+02  3.3056090022e+02  1.6932955814e+02  3.594747e-13 9.
       -6     2     1     2     0   103 -7.9703921110e+01 -1.0048690543e+02 -8.9110771814e+02  9.1677849212e+02  1.7308814249e+02  1.273472e-13 9.
       24     2     3     0     0     0  8.4693186503e+01  1.3064961226e+02 -1.8092223613e+02  2.5186854249e+02  8.0390609800e+01  4.480437e-14 9.
        5     1     3     0   101     0 -4.9892653930e+00 -3.0162706832e+01 -7.2351679406e+01  7.8692357733e+01  4.8000000000e+00 0. 9.
      -24     2     4     0     0     0  2.0024533080e+01 -3.8054353285e+01 -2.5623123528e+02  2.7107362405e+02  7.7313310609e+01  1.230425e-13 9.
       -5     1     4     0     0   103 -9.9728454191e+01 -6.2432552145e+01 -6.3487648287e+02  6.4570486806e+02  4.8000000000e+00 0. 9.
      -13     1     5     0     0     0  5.0456602334e+01  1.6121024842e+01 -3.6175504298e+01  6.4143857354e+01  1.0566000000e-01  1.284661e+05 9.
       14     1     5     0     0     0  3.4236584169e+01  1.1452858742e+02 -1.4474673183e+02  1.8772468513e+02  0.0000000000e+00 0. 9.
        1     1     7     0   104     0  2.2846955529e+01 -2.2908869542e+01 -2.5333643936e+02  2.5539432274e+02  3.3000000000e-01 0. 9.
       -2     1     7     0     0   104 -2.8224224484e+00 -1.5145483743e+01 -2.8947959176e+00  1.5679301314e+01  3.3000000000e-01 0. 9.
#pdf   21   21  7.919828e-03  1.839785e-01  2.124214e+02  9.690601e+00  3.097122e-01
</event>
<event>
    12  9999  1.000000e+00  2.672293e+02  7.913962e-03  1.021447e-01
       21    -1     0     0   101   102  0.0000000000e+00  0.0000000000e+00  1.1280288200e+02  1.1280288200e+02  0.0000000000e+00 0. 9.
       21    -1     0     0   102   103  0.0000000000e+00  0.0000000000e+00 -7.5075809486e+02  7.5075809486e+02  0.0000000000e+00 0. 9.
        6     2     1     2   101     0  6.1077957903e+01  1.9592687424e+02 -4.8993815580e+02  5.5807902084e+02  1.7115764664e+02  7.166406e-14 9.
       -6     2     1     2     0   103 -6.1077957903e+01 -1.9592687424e+02 -1.4801705705e+02  3.0548195602e+02  1.7114999061e+02  8.748989e-14 9.
       24     2     3     0     0     0  4.8860277920e+01  1.3033114036e+02 -1.8428337184e+02  2.4518932947e+02  8.2364514477e+01  4.235751e-14 9.
        5     1     3     0   101     0  1.2217679983e+01  6.5595733880e+01 -3.0565478396e+02  3.1288969137e+02  4.8000000000e+00 0. 9.
      -24     2     4     0     0     0 -5.9905195816e+01 -8.9601106162e+01 -1.4711150340e+02  1.9903758390e+02  7.9731892384e+01  8.147935e-14 9.
       -5     1     4     0     0   103 -1.1727620865e+00 -1.0632576808e+02 -9.0555365261e-01  1.0644437212e+02  4.8000000000e+00 0. 9.
       -3     1     5     0     0   104 -2.4515049730e-02  9.2539893549e+01 -1.4480469235e+02  1.7184958954e+02  5.0000000000e-01 0. 9.
        4     1     5     0   104     0  4.8884792970e+01  3.7791246808e+01 -3.9478679495e+01  7.3339739935e+01  1.5000000000e+00 0. 9.
        1     1     7     0   105     0 -8.1569574362e+00 -1.3976450769e+01 -8.9154948585e+01  9.0612310907e+01  3.3000000000e-01 0. 9.
       -2     1     7     0     0   105 -5.1748238380e+01 -7.5624655393e+01 -5.7956554814e+01  1.0842527300e+02  3.3000000000e-01 0. 9.
#pdf   21   21  1.735429e-02  1.155012e-01  2.672268e+02  5.186979e+00  6.452337e-01
</event>
<event>
    12  9999  1.000000e+00  1.751503e+02  7.875782e-03  1.074658e-01
       21    -1     0     0   101   102  0.0000000000e+00  0.0000000000e+00  4.7111510663e+01  4.7111510663e+01  0.0000000000e+00 0. 9.
       21    -1     0     0   102   103  0.0000000000e+00  0.0000000000e+00 -1.4819609496e+03  1.4819609496e+03  0.0000000000e+00 0. 9.
        6     2     1     2   101     0  3.5297052944e+01  2.2041260522e+01 -1.4300509458e+02  2.2525840902e+02  1.6899465863e+02  1.581392e-13 9.
       -6     2     1     2     0   103 -3.5297052944e+01 -2.2041260522e+01 -1.2918443443e+03  1.3038140512e+03  1.7128213877e+02  7.122854e-14 9.
       24     2     3     0     0     0  4.4923695570e+01  3.5670129101e+01 -1.9878118146e+01  1.0091328192e+02  8.0609269649e+01  3.293230e-14 9.
        5     1     3     0   101     0 -9.6266426258e+00 -1.3628868579e+01 -1.2312697644e+02  1.2434512710e+02  4.8000000000e+00 0. 9.
      -24     2     4     0     0     0 -7.7209906029e+01  1.9660129952e+01 -7.3384467597e+02  7.4267025226e+02  8.1750870577e+01  3.288410e-14 9.
       -5     1     4     0     0   103  4.1912853084e+01 -4.1701390473e+01 -5.5799966835e+02  5.6114379895e+02  4.8000000000e+00 0. 9.
      -11     1     5     0     0     0  3.3386141366e+01 -2.0290949398e+01  3.3980977335e+00  3.9216120808e+01  5.1100000000e-04 0. 9.
       12     1     5     0     0     0  1.1537554205e+01  5.5961078499e+01 -2.3276215879e+01  6.1697161113e+01  0.0000000000e+00 0. 9.
       11     1     7     0     0     0  1.3486109336e+01  1.8136296330e+01 -1.1345020626e+02  1.1567951284e+02  5.1100000000e-04 0. 9.
      -12     1     7     0     0     0 -9.0696015364e+01  1.5238336216e+00 -6.2039446971e+02  6.2699073942e+02  0.0000000000e+00 0. 9.
#pdf   21   21  7.247925e-03  2.279940e-01  1.740428e+02  1.029442e+01  2.091197e-01
</event>
<event>
    12  9999  1.000000e+00  1.795769e+02  7.878027e-03  1.071358e-01
       21    -1     0     0   101   102  0.0000000000e+00  0.0000000000e+00  1.8376265757e+02  1.8376265757e+02  0.0000000000e+00 0. 9.
       21    -1     0     0   102   103  0.0000000000e+00  0.0000000000e+00 -8.1541043031e+02  8.1541043031e+02  0.0000000000e+00 0. 9.
        6     2     1     2   101     0  5.4938806486e+01  5.8547489783e+00  1.2671785124e+02  2.1985620246e+02  1.7095843178e+02  2.672115e-14 9.
       -6     2     1     2     0   103 -5.4938806486e+01 -5.8547489783e+00 -7.5836562398e+02  7.7931688542e+02  1.7077423029e+02  1.982971e-14 9.
       24     2     3     0     0     0  6.6697344871e+01  6.1619554029e+01  7.5687999470e+01  1.4320724632e+02  8.0834008203e+01  1.221010e-13 9.
        5     1     3     0   101     0 -1.1758538385e+01 -5.5764805051e+01  5.1029851765e+01  7.6648956147e+01  4.8000000000e+00 0. 9.
      -24     2     4     0     0     0 -9.0803738710e+01  2.6999119012e+01 -4.3699394968e+02  4.5425002608e+02  8.0031885784e+01  4.388493e-14 9.
       -5     1     4     0     0   103  3.5864932224e+01 -3.2853867991e+01 -3.2137167430e+02  3.2506685935e+02  4.8000000000e+00 0. 9.
      -13     1     5     0     0     0  4.5483670249e+01  5.9968001812e+01  1.2199524882e+01  7.6248049628e+01  1.0566000000e-01  6.600744e+05 9.
       14     1     5     0     0     0  2.1213674622e+01  1.6515522174e+00  6.3488474588e+01  6.6959196689e+01  0.0000000000e+00 0. 9.
        3     1     7     0   104     0 -7.6953656500e+01 -1.6168008956e+01 -2.7330268896e+02  2.8439036474e+02  5.0000000000e-01 0. 9.
       -4     1     7     0     0   104 -1.3850082211e+01  4.3167127969e+01 -1.6369126072e+02  1.6985966134e+02  1.5000000000e+00 0. 9.
#pdf   21   21  2.827118e-02  1.254478e-01  1.794892e+02  3.388585e+00  5.983891e-01
</event>
<event>
    12  9999  1.000000e+00  1.917742e+02  7.883945e-03  1.062768e-01
       21    -1     0     0   101   102  0.0000000000e+00  0.0000000000e+00  4.8759355619e+02  4.8759355619e+02  0.0000000000e+00 0. 9.
       21    -1     0     0   102   103  0.0000000000e+00  0.0000000000e+00 -9.9783594827e+01  9.9783594827e+01  0.0000000000e+00 0. 9.
        6     2     1     2   101     0  5.9075368408e+01  6.3694660475e+01  3.3880251679e+02  3.8918180015e+02  1.7067049909e+02  4.845641e-13 9.
       -6     2     1     2     0   103 -5.9075368408e+01 -6.3694660475e+01  4.9007444580e+01  1.9819535087e+02  1.7126808972e+02  7.953823e-14 9.
       24     2     3     0     0     0 -3.3196750947e+01  1.6519255267e+01  1.7009440230e+02  1.9112844683e+02  7.8886421050e+01  1.774279e-14 9.
        5     1     3     0   101     0  9.2272119354e+01  4.7175405208e+01  1.6870811448e+02  1.9805335331e+02  4.8000000000e+00 0. 9.
      -24     2     4     0     0     0  3.6965057032e+00  2.0393328754e+01  3.0455411722e+01  9.1526161155e+01  8.3785166113e+01  1.333954e-14 9.
       -5     1     4     0     0   103 -6.2771874111e+01 -8.4087989229e+01  1.8552032858e+01  1.0666918972e+02  4.8000000000e+00 0. 9.
       -3     1     5     0     0   104 -4.5584553357e+00 -3.0550419156e+01  7.6774709113e+01  8.2756954904e+01  5.0000000000e-01 0. 9.
        2     1     5     0   104     0 -2.8638295611e+01  4.7069674423e+01  9.3319693190e+01  1.0837149193e+02  3.3000000000e-01 0. 9.
        1     1     7     0   105     0 -3.7209667236e+01 -1.0603542993e+00  2.5383344160e+01  4.5056705914e+01  3.3000000000e-01 0. 9.
       -2     1     7     0     0   105  4.0906172939e+01  2.1453683054e+01  5.0720675620e+00  4.6469455241e+01  3.3000000000e-01 0. 9.
#pdf   21   21  7.501439e-02  1.535132e-02  1.915080e+02  1.192805e+00  5.773654e+00
</event>
<event>
    12  9999  1.000000e+00  1.723899e+02  7.874353e-03  1.076768e-01
       21    -1     0     0   101   102  0.0000000000e+00  0.0000000000e+00  2.3438188138e+02  2.3438188138e+02  0.0000000000e+00 0. 9.
       21    -1     0     0   102   103  0.0000000000e+00  0.0000000000e+00 -4.3903421196e+02  4.3903421196e+02  0.0000000000e+00 0. 9.
        6     2     1     2   101     0 -1.2021995629e+01  1.4270115753e+01  1.8172139699e+02  2.5010411830e+02  1.7082517169e+02  4.402579e-13 9.
       -6     2     1     2     0   103  1.2021995629e+01 -1.4270115753e+01 -3.8637372757e+02  4.2331197504e+02  1.7193081828e+02  4.107312e-14 9.
       24     2     3     0     0     0 -2.8020550830e+01  1.0294085806e+01  2.0458405724e+02  2.2151209465e+02  7.9510075645e+01  2.019901e-14 9.
        5     1     3     0   101     0  1.5998555202e+01  3.9760299466e+00 -2.2862660246e+01  2.8592023646e+01  4.8000000000e+00 0. 9.
      -24     2     4     0     0     0 -3.4292638849e+01  1.0440267008e+01 -3.4522690188e+02  3.5644083293e+02  8.1138581099e+01  6.264383e-14 9.
       -5     1     4     0     0   103  4.6314634477e+01 -2.4710382761e+01 -4.1146825691e+01  6.6871142112e+01  4.8000000000e+00 0. 9.
       -3     1     5     0     0   104 -4.4473546776e+01  1.8945684767e+01  6.6724760158e+01  8.2397080969e+01  5.0000000000e-01 0. 9.
        4     1     5     0   104     0  1.6452995946e+01 -8.6515989607e+00  1.3785929708e+02  1.3911501368e+02  1.5000000000e+00 0. 9.
        1     1     7     0   105     0 -3.4346294811e+01 -2.3686352301e+01 -9.3190932417e+01  1.0210470135e+02  3.3000000000e-01 0. 9.
       -2     1     7     0     0   105  5.3655961974e-02  3.4126619309e+01 -2.5203596946e+02  2.5433613158e+02  3.3000000000e-01 0. 9.
#pdf   21   21  3.605875e-02  6.754372e-02  1.718412e+02  2.687652e+00  1.365744e+00
</event>
<event>
    12  9999  1.000000e+00  1.782818e+02  7.877376e-03  1.072313e-01
       21    -1     0     0   101   102  0.0000000000e+00  0.0000000000e+00  1.6588187542e+01  1.6588187542e+01  0.0000000000e+00 0. 9.
       21    -1     0     0   103   101  0.0000000000e+00  0.0000000000e+00 -2.3641547922e+03  2.3641547922e+03  0.0000000000e+00 0. 9.
        6     2     1     2   103     0  3.0165873311e+01  4.4761490879e+01 -1.6935890799e+03  1.7029781263e+03  1.7022619063e+02  3.286441e-13 9.
       -6     2     1     2     0   102 -3.0165873311e+01 -4.4761490879e+01 -6.5397752476e+02  6.7776485348e+02  1.6960254348e+02  3.996119e-13 9.
       24     2     3     0     0     0 -3.5069552589e+01  1.1589681619e+01 -1.2829954963e+03  1.2858856178e+03  7.7847185480e+01  2.001568e-13 9.
        5     1     3     0   103     0  6.5235425900e+01  3.3171809260e+01 -4.1059358361e+02  4.1709250847e+02  4.8000000000e+00 0. 9.
      -24     2     4     0     0     0 -2.5679652462e+01  1.2588213333e+01 -5.6652267522e+02  5.7297694646e+02  8.0850058577e+01  9.083244e-15 9.
       -5     1     4     0     0   102 -4.4862208487e+00 -5.7349704212e+01 -8.7454849532e+01  1.0478790702e+02  4.8000000000e+00 0. 9.
      -15     1     5     0     0     0  2.4537139812e+01  9.9434227960e+00 -3.9719108688e+02  3.9807644928e+02  1.7768200000e+00  1.138270e-01 9.
       16     1     5     0     0     0 -5.9606692401e+01  1.6462588226e+00 -8.8580440941e+02  8.8780916851e+02  0.0000000000e+00 0. 9.
       15     1     7     0     0     0 -2.9802924189e+01  1.6710097149e+01 -8.7976395560e+01  9.4395152958e+01  1.7768200000e+00  1.204522e-01 9.
      -16     1     7     0     0     0  4.1232717269e+00 -4.1218838160e+00 -4.7854627966e+02  4.7858179351e+02  0.0000000000e+00 0. 9.
#pdf   21   21  2.552029e-03  3.637161e-01  1.779848e+02  2.097298e+01  5.397575e-02
</event>
<event>
    12  9999  1.000000e+00  1.914698e+02  7.883802e-03  1.062974e-01
       21    -1     0     0   101   102  0.0000000000e+00  0.0000000000e+00  9.0560737177e+02  9.0560737177e+02  0.0000000000e+00 0. 9.
       21    -1     0     0   102   103  0.0000000000e+00  0.0000000000e+00 -1.0413499309e+02  1.0413499309e+02  0.0000000000e+00 0. 9.
        6     2     1     2   101     0  8.7849709408e+01 -1.6016059531e+00  7.9480884199e+02  8.1736081677e+02  1.6922609994e+02  3.756822e-14 9.
       -6     2     1     2     0   103 -8.7849709408e+01  1.6016059531e+00  6.6635366933e+00  1.9238154809e+02  1.7101497227e+02  2.622213e-13 9.
       24     2     3     0     0     0  8.7672560749e+01 -1.3386888609e+01  3.0863178197e+02  3.3101721605e+02  8.0331399752e+01  4.356286e-15 9.
        5     1     3     0   101     0  1.7714865973e-01  1.1785282656e+01  4.8617706002e+02  4.8634360071e+02  4.8000000000e+00 0. 9.
      -24     2     4     0     0     0 -6.9391935158e+01  6.5909228729e+01  7.8608856365e+00  1.2529478769e+02  8.0484304072e+01  1.981073e-13 9.
       -5     1     4     0     0   103 -1.8457774251e+01 -6.4307622776e+01 -1.1973489432e+00  6.7086760407e+01  4.8000000000e+00 0. 9.
       -1     1     5     0     0   104  9.3708167661e+01  6.2020876575e+00  2.8311779498e+02  2.9828758156e+02  3.3000000000e-01 0. 9.
        2     1     5     0   104     0 -6.0356069122e+00 -1.9588976267e+01  2.5513986992e+01  3.2729634495e+01  3.3000000000e-01 0. 9.
        3     1     7     0   105     0 -6.6238238961e+01  5.9125516672e+01  3.6245464272e+01  9.5902631365e+01  5.0000000000e-01 0. 9.
       -4     1     7     0     0   105 -3.1536961964e+00  6.7837120577e+00 -2.8384578635e+01  2.9392156322e+01  1.5000000000e+00 0. 9.
#pdf   21   21  1.393242e-01  1.602077e-02  1.906767e+02  5.055591e-01  5.573526e+00
</event>
<event>
    12  9999  1.000000e+00  1.967617e+02  7.886260e-03  1.059450e-01
       21    -1     0     0   101   102  0.0000000000e+00  0.0000000000e+00  5.7821571751e+01  5.7821571751e+01  0.0000000000e+00 0. 9.
       21    -1     0     0   102   103  0.0000000000e+00  0.0000000000e+00 -1.2249840704e+03  1.2249840704e+03  0.0000000000e+00 0. 9.
        6     2     1     2   101     0 -8.9614703029e+01  4.0006268287e+01 -1.5242974283e+02  2.4925910556e+02  1.7106717600e+02  1.262382e-13 9.
       -6     2     1     2     0   103  8.9614703029e+01 -4.0006268287e+01 -1.0147327559e+03  1.0335465366e+03  1.7001347318e+02  2.791050e-13 9.
       24     2     3     0     0     0 -5.6743062043e+01  5.8117294662e+01 -1.6866515268e+02  2.0808651043e+02  9.0855198333e+01  3.392291e-14 9.
        5     1     3     0   101     0 -3.2871640986e+01 -1.8111026375e+01  1.6235409847e+01  4.1172595138e+01  4.8000000000e+00 0. 9.
      -24     2     4     0     0     0  7.0407276750e+01 -9.1162759057e+01 -7.7578117475e+02  7.8837963452e+02  8.0238293727e+01  1.236006e-13 9.
       -5     1     4     0     0   103  1.9207426279e+01  5.1156490769e+01 -2.3895158111e+02  2.4516690210e+02  4.8000000000e+00 0. 9.
       -3     1     5     0     0   104 -1.2964315533e+00  4.3561701089e+01 -1.3438643933e+02  1.4127727210e+02  5.0000000000e-01 0. 9.
        4     1     5     0   104     0 -5.5446630489e+01  1.4555593573e+01 -3.4278713353e+01  6.6809238328e+01  1.5000000000e+00 0. 9.
       11     1     7     0     0     0  2.1990836591e+00 -2.3711802648e+01 -4.1403731151e+01  4.7763526956e+01  5.1100000000e-04 0. 9.
      -12     1     7     0     0     0  6.8208193091e+01 -6.7450956408e+01 -7.3437744359e+02  7.4061610756e+02  0.0000000000e+00 0. 9.
#pdf   21   21  8.895626e-03  1.884591e-01  1.963056e+02  8.872082e+00  2.999893e-01
</event>
<event>
    12  9999  1.000000e+00  1.712337e+02  7.873748e-03  1.077665e-01
       21    -1     0     0   101   102  0.0000000000e+00  0.0000000000e+00  2.3286240177e+02  2.3286240177e+02  0.0000000000e+00 0. 9.
       21    -1     0     0   103   101  0.0000000000e+00  0.0000000000e+00 -4.6719376351e+02  4.6719376351e+02  0.0000000000e+00 0. 9.
        6     2     1     2   103     0  4.7523009809e+00 -9.3314515863e+00 -4.1631547943e+02  4.5012661896e+02  1.7083832804e+02  8.008129e-15 9.
       -6     2     1     2     0   102 -4.7523009809e+00  9.3314515863e+00  1.8198411769e+02  2.4992954632e+02  1.7098800742e+02  2.047632e-13 9.
       24     2     3     0     0     0 -3.3128630515e+01  4.4789846578e+01 -1.8297429245e+02  2.0756687492e+02  8.0627410663e+01  3.424805e-14 9.
        5     1     3     0   103     0  3.7880931496e+01 -5.4121298164e+01 -2.3334118698e+02  2.4255974403e+02  4.8000000000e+00 0. 9.
      -24     2     4     0     0     0 -1.6317206809e+01 -3.8379800707e+00  2.0498681969e+02  2.2061495479e+02  7.9814664704e+01  4.232157e-14 9.
       -5     1     4     0     0   102  1.1564905828e+01  1.3169431657e+01 -2.3002702005e+01  2.9314591529e+01  4.8000000000e+00 0. 9.
       -1     1     5     0     0   104  1.2946625337e+01  6.4265308320e+00  5.7364994879e-01  1.4469049050e+01  3.3000000000e-01 0. 9.
        4     1     5     0   104     0 -4.6075255851e+01  3.8363315746e+01 -1.8354794240e+02  1.9309782587e+02  1.5000000000e+00 0. 9.
        3     1     7     0   105     0  3.2070719617e+01 -5.8294111544e+00  7.0687219760e+01  7.7842444262e+01  5.0000000000e-01 0. 9.
       -4     1     7     0     0   105 -4.8387926426e+01  1.9914310836e+00  1.3429959993e+02  1.4277251053e+02  1.5000000000e+00 0. 9.
#pdf   21   21  3.582498e-02  7.187596e-02  1.711590e+02  2.705376e+00  1.268258e+00
</event>
<event>
    12  9999  1.000000e+00  2.193121e+02  7.896057e-03  1.045656e-01
       21    -1     0     0   101   102  0.0000000000e+00  0.0000000000e+00  3.9227719969e+02  3.9227719969e+02  0.0000000000e+00 0. 9.
       21    -1     0     0   102   103  0.0000000000e+00  0.0000000000e+00 -1.5550605115e+02  1.5550605115e+02  0.0000000000e+00 0. 9.
        6     2     1     2   101     0 -8.2034800408e+01  1.1010902182e+02  2.4438785530e+02  3.2841582238e+02  1.7110763692e+02  1.497260e-13 9.
       -6     2     1     2     0   103  8.2034800408e+01 -1.1010902182e+02 -7.6167067527e+00  2.1936742845e+02  1.7091035452e+02  6.987172e-14 9.
       24     2     3     0     0     0  2.1075279220e+01  6.9656306796e+01  1.2414814883e+02  1.6486540910e+02  8.0446701545e+01  1.554494e-13 9.
        5     1     3     0   101     0 -1.0311007963e+02  4.0452715023e+01  1.2023970647e+02  1.6355041329e+02  4.8000000000e+00 0. 9.
      -24     2     4     0     0     0  5.5600807642e+01 -1.1726844335e+02  4.5576967750e+01  1.5934559662e+02  8.0438930593e+01  5.631891e-14 9.
       -5     1     4     0     0   103  2.6433992765e+01  7.1594215323e+00 -5.3193674503e+01  6.0021831839e+01  4.8000000000e+00 0. 9.
       -1     1     5     0     0   104 -2.3977392791e+01  3.6863639065e+01  8.8189733541e+01  9.8546340633e+01  3.3000000000e-01 0. 9.
        2     1     5     0   104     0  4.5052672011e+01  3.2792667732e+01  3.5958415285e+01  6.6319068465e+01  3.3000000000e-01 0. 9.
        3     1     7     0   105     0  9.0936671134e+00 -4.8755333781e+01  5.7205071884e+01  7.5712928902e+01  5.0000000000e-01 0. 9.
       -4     1     7     0     0   105  4.6507140529e+01 -6.8513109570e+01 -1.1628104133e+01  8.3632667714e+01  1.5000000000e+00 0. 9.
#pdf   21   21  6.035034e-02  2.392401e-02  2.192352e+02  1.529651e+00  3.926276e+00
</event>
<event>
    12  9999  1.000000e+00  1.832857e+02  7.879867e-03  1.068671e-01
       21    -1     0     0   101   102  0.0000000000e+00  0.0000000000e+00  2.2491322795e+02  2.2491322795e+02  0.0000000000e+00 0. 9.
       21    -1     0     0   103   101  0.0000000000e+00  0.0000000000e+00 -2.0276643151e+02  2.0276643151e+02  0.0000000000e+00 0. 9.
        6     2     1     2   103     0  5.3424615618e+01 -4.0071113158e+01 -9.8655836510e+01  2.0841173450e+02  1.7100465881e+02  3.287380e-13 9.
       -6     2     1     2     0   102 -5.3424615618e+01  4.0071113158e+01  1.2080263295e+02  2.1926792496e+02  1.7036802261e+02  3.524058e-14 9.
       24     2     3     0     0     0  7.0002951775e+01 -8.2867520064e+01 -5.8260286025e+01  1.4708299594e+02  8.0446924301e+01  3.086087e-14 9.
        5     1     3     0   103     0 -1.6578336157e+01  4.2796406906e+01 -4.0395550485e+01  6.1328738556e+01  4.8000000000e+00 0. 9.
      -24     2     4     0     0     0  2.1709901552e+01  2.9768463721e+00  1.0371134593e+02  1.3361553217e+02  8.1344242106e+01  4.592446e-15 9.
       -5     1     4     0     0   102 -7.5134517170e+01  3.7094266786e+01  1.7091287020e+01  8.5652392790e+01  4.8000000000e+00 0. 9.
      -15     1     5     0     0     0  6.1338555626e+01 -3.7742899445e+01 -6.9152461605e+01  9.9860727516e+01  1.7768200000e+00  7.465938e-02 9.
       16     1     5     0     0     0  8.6643961492e+00 -4.5124620619e+01  1.0892175579e+01  4.7222268428e+01  0.0000000000e+00 0. 9.
        3     1     7     0   104     0  2.5633568090e+01 -1.4156122345e+01  8.9893969257e-01  2.9300745818e+01  5.0000000000e-01 0. 9.
       -4     1     7     0     0   104 -3.9236665388e+00  1.7132968717e+01  1.0281240624e+02  1.0431478636e+02  1.5000000000e+00 0. 9.
#pdf   21   21  3.460204e-02  3.119484e-02  1.829895e+02  2.791601e+00  3.086027e+00
</event>
<event>
    12  9999  1.000000e+00  2.050443e+02  7.889980e-03  1.054165e-01
       21    -1     0     0   101   102  0.0000000000e+00  0.0000000000e+00  8.6899086223e+01  8.6899086223e+01  0.0000000000e+00 0. 9.
       21    -1     0     0   103   101  0.0000000000e+00  0.0000000000e+00 -7.1803989729e+02  7.1803989729e+02  0.0000000000e+00 0. 9.
        6     2     1     2   103     0  7.1837562827e+01  9.0266431174e+01 -5.4746350607e+02  5.8530396693e+02  1.7191794321e+02  2.361500e-13 9.
       -6     2     1     2     0   102 -7.1837562827e+01 -9.0266431174e+01 -8.3677304998e+01  2.1963501658e+02  1.6711967301e+02  1.552540e-13 9.
       24     2     3     0     0     0  1.1032552980e+02  1.0237879234e+02 -4.9913945419e+02  5.2216691850e+02  2.9410141104e+01  3.613652e-14 9.
        5     1     3     0   103     0 -3.8487966975e+01 -1.2112361162e+01 -4.8324051877e+01  6.3137048431e+01  4.8000000000e+00 0. 9.
      -24     2     4     0     0     0 -2.0092616795e+01 -1.0654606014e+02 -2.5910726357e+01  1.4024620523e+02  8.5099096119e+01  3.071538e-14 9.
       -5     1     4     0     0   102 -5.1744946032e+01  1.6279628971e+01 -5.7766578642e+01  7.9388811348e+01  4.8000000000e+00 0. 9.
       -1     1     5     0     0   104  2.1348782895e+01  6.8785987960e+00 -6.0791576417e+01  6.4798227721e+01  3.3000000000e-01 0. 9.
        2     1     5     0   104     0  8.8976746906e+01  9.5500193540e+01 -4.3834787777e+02  4.5736869078e+02  3.3000000000e-01 0. 9.
       11     1     7     0     0     0  8.4137154463e+00 -3.1251898406e+01  2.8459000806e+01  4.3097406984e+01  5.1100000000e-04 0. 9.
      -12     1     7     0     0     0 -2.8506332241e+01 -7.5294161739e+01 -5.4369727163e+01  9.7148798250e+01  0.0000000000e+00 0. 9.
#pdf   21   21  1.336909e-02  1.104677e-01  2.030706e+02  6.460970e+00  7.102901e-01
</event>
<event>
    12  9999  1.000000e+00  2.773554e+02  7.917342e-03  1.017017e-01
       21    -1     0     0   101   102  0.0000000000e+00  0.0000000000e+00  3.9836923579e+02  3.9836923579e+02  0.0000000000e+00 0. 9.
       21    -1     0     0   102   103  0.0000000000e+00  0.0000000000e+00 -2.0669453315e+02  2.0669453315e+02  0.0000000000e+00 0. 9.
        6     2     1     2   101     0 -1.4628691222e+02 -1.6209842026e+02  1.7338275202e+02  3.2699799393e+02  1.7085183872e+02  1.118750e-13 9.
       -6     2     1     2     0   103  1.4628691222e+02  1.6209842026e+02  1.8291950619e+01  2.7806577502e+02  1.7120228165e+02  6.671165e-14 9.
       24     2     3     0     0     0 -6.3825964890e+01 -9.5872699606e+01  2.2516793177e+01  1.4269055661e+02  8.1168101166e+01  7.275257e-14 9.
        5     1     3     0   101     0 -8.2460947330e+01 -6.6225720655e+01  1.5086595885e+02  1.8430743732e+02  4.8000000000e+00 0. 9.
      -24     2     4     0     0     0  1.3132326100e+02  9.2482114342e+01 -4.2897362384e+01  1.8405772785e+02  7.8983055954e+01  1.971070e-13 9.
       -5     1     4     0     0   103  1.4963651221e+01  6.9616305919e+01  6.1189313003e+01  9.4008047174e+01  4.8000000000e+00 0. 9.
       -1     1     5     0     0   104 -6.7326121775e+01 -7.3286140778e+01  4.6249611564e+01  1.0973969461e+02  3.3000000000e-01 0. 9.
        2     1     5     0   104     0  3.5001568855e+00 -2.2586558828e+01 -2.3732818387e+01  3.2950862000e+01  3.3000000000e-01 0. 9.
       13     1     7     0     0     0  9.0731406452e+01  5.5045290808e+01 -6.5146641583e+01  1.2452416725e+02  1.0566000000e-01  6.086822e+05 9.
      -14     1     7     0     0     0  4.0591854546e+01  3.7436823534e+01  2.2249279199e+01  5.9533560591e+01  0.0000000000e+00 0. 9.
#pdf   21   21  6.128757e-02  3.179916e-02  2.772474e+02  1.476241e+00  2.977801e+00
</event>
<event>
    12  9999  1.000000e+00  3.334484e+02  7.934118e-03  9.956395e-02
       21    -1     0     0   101   102  0.0000000000e+00  0.0000000000e+00  9.0931809783e+02  9.0931809783e+02  0.0000000000e+00 0. 9.
       21    -1     0     0   103   101  0.0000000000e+00  0.0000000000e+00 -2.2398958771e+02  2.2398958771e+02  0.0000000000e+00 0. 9.
        6     2     1     2   103     0  6.0669098589e+01 -2.8082649561e+02 -3.9574488496e+01  3.3509940556e+02  1.6787260441e+02  5.683358e-14 9.
       -6     2     1     2     0   102 -6.0669098589e+01  2.8082649561e+02  7.2490299862e+02  7.9820827998e+02  1.7061020095e+02  2.781212e-13 9.
       24     2     3     0     0     0  9.2164963631e+01 -2.6787377701e+02 -5.1249357017e+01  2.9877992059e+02  7.9951256524e+01  2.184886e-13 9.
        5     1     3     0   103     0 -3.1495865042e+01 -1.2952718593e+01  1.1674868521e+01  3.6319484973e+01  4.8000000000e+00 0. 9.
      -24     2     4     0     0     0  8.6094001434e+00  1.6073160338e+02  2.8724468283e+02  3.3908941204e+02  8.1014513794e+01  6.864938e-14 9.
       -5     1     4     0     0   102 -6.9278498733e+01  1.2009489223e+02  4.3765831578e+02  4.5911886794e+02  4.8000000000e+00 0. 9.
       -1     1     5     0     0   104  8.9185679716e+01 -2.7301339621e+02 -4.6052986257e+01  2.9088036445e+02  3.3000000000e-01 0. 9.
        2     1     5     0   104     0  2.9792839148e+00  5.1396191988e+00 -5.1963707604e+00  7.8995561416e+00  3.3000000000e-01 0. 9.
        3     1     7     0   105     0  1.4372367784e+01  8.2271085802e+01  2.2095356529e+02  2.3621139797e+02  5.0000000000e-01 0. 9.
       -2     1     7     0     0   105 -5.7629676409e+00  7.8460517573e+01  6.6291117541e+01  1.0287801407e+02  3.3000000000e-01 0. 9.
#pdf   21   21  1.398951e-01  3.445994e-02  3.327544e+02  4.669133e-01  2.727197e+00
</event>
<event>
    12  9999  1.000000e+00  2.217097e+02  7.897040e-03  1.044294e-01
       21    -1     0     0   101   102  0.0000000000e+00  0.0000000000e+00  1.8482224943e+02  1.8482224943e+02  0.0000000000e+00 0. 9.
       21    -1     0     0   102   103  0.0000000000e+00  0.0000000000e+00 -2.9224486815e+02  2.9224486815e+02  0.0000000000e+00 0. 9.
        6     2     1     2   101     0 -1.4178763872e+02  6.2731687504e+00  1.7693869018e+01  2.2300170378e+02  1.7109529434e+02  1.307160e-15 9.
       -6     2     1     2     0   103  1.4178763872e+02 -6.2731687504e+00 -1.2511648775e+02  2.5406541380e+02  1.6956418207e+02  3.970401e-13 9.
       24     2     3     0     0     0 -9.2546851093e+01  1.8955918994e+01 -5.4087593480e+01  1.3490445252e+02  7.9683731278e+01  3.090235e-14 9.
        5     1     3     0   101     0 -4.9240787631e+01 -1.2682750244e+01  7.1781462498e+01  8.8097251254e+01  4.8000000000e+00 0. 9.
      -24     2     4     0     0     0  8.8628653380e+01 -6.6052183283e+01 -5.4731246377e+01  1.4740459389e+02  8.0713541947e+01  6.160876e-14 9.
       -5     1     4     0     0   103  5.3158985344e+01  5.9779014532e+01 -7.0385241369e+01  1.0666081991e+02  4.8000000000e+00 0. 9.
      -15     1     5     0     0     0 -7.1229490078e+01 -1.6820886458e+01 -9.3865981860e+00  7.3809537276e+01  1.7768200000e+00  1.388094e-03 9.
       16     1     5     0     0     0 -2.1317361015e+01  3.5776805453e+01 -4.4700995294e+01  6.1094915249e+01  0.0000000000e+00 0. 9.
        3     1     7     0   104     0  3.3687742941e+01 -1.5355466283e+01 -6.2068452471e+01  7.2273073557e+01  5.0000000000e-01 0. 9.
       -4     1     7     0     0   104  5.4940910439e+01 -5.0696717000e+01  7.3372060936e+00  7.5131520334e+01  1.5000000000e+00 0. 9.
#pdf   21   21  2.843419e-02  4.496075e-02  2.211224e+02  3.345977e+00  2.117225e+00
</event>
<event>
    12  9999  1.000000e+00  2.717094e+02  7.915473e-03  1.019462e-01
       21    -1     0     0   101   102  0.0000000000e+00  0.0000000000e+00  1.5613329578e+03  1.5613329578e+03  0.0000000000e+00 0. 9.
       21    -1     0     0   102   103  0.0000000000e+00  0.0000000000e+00 -4.9339782906e+01  4.9339782906e+01  0.0000000000e+00 0. 9.
        6     2     1     2   101     0 -1.8336230688e+02  1.0517014844e+02  5.9053705595e+02  6.4987780030e+02  1.7007247034e+02  1.553847e-14 9.
       -6     2     1     2     0   103  1.8336230688e+02 -1.0517014844e+02  9.2145611895e+02  9.6079494041e+02  1.7135647833e+02  8.958478e-14 9.
       24     2     3     0     0     0 -1.5429352543e+02  7.0055138859e+01  5.6910882733e+02  5.9927871994e+02  8.0844989617e+01  7.297558e-14 9.
        5     1     3     0   101     0 -2.9068781446e+01  3.5115009577e+01  2.1428228620e+01  5.0599080368e+01  4.8000000000e+00 0. 9.
      -24     2     4     0     0     0  5.2796912736e+01 -1.0262462912e+02  4.2075682388e+02  4.4332356353e+02  7.8613921390e+01  3.742503e-14 9.
       -5     1     4     0     0   103  1.3056539414e+02 -2.5455193129e+00  5.0069929506e+02  5.1747137688e+02  4.8000000000e+00 0. 9.
      -11     1     5     0     0     0 -9.6364753817e+01  3.0973998682e+01  2.0620848918e+02  2.2971176588e+02  5.1100000000e-04 0. 9.
       12     1     5     0     0     0 -5.7928771616e+01  3.9081140177e+01  3.6290033816e+02  3.6956695406e+02  0.0000000000e+00 0. 9.
       13     1     7     0     0     0  1.4201279554e+01 -4.5522549305e+00  1.7865047799e+02  1.7927187123e+02  1.0566000000e-01  1.363829e+06 9.
      -14     1     7     0     0     0  3.8595633182e+01 -9.8072374193e+01  2.4210634590e+02  2.6405169230e+02  0.0000000000e+00 0. 9.
#pdf   21   21  2.402051e-01  7.590736e-03  2.713064e+02  1.702366e-01  1.004382e+01
</event>
<event>
    12  9999  1.000000e+00  1.909128e+02  7.883540e-03  1.063352e-01
       21    -1     0     0   101   102  0.0000000000e+00  0.0000000000e+00  1.6087551396e+02  1.6087551396e+02  0.0000000000e+00 0. 9.
       21    -1     0     0   103   101  0.0000000000e+00  0.0000000000e+00 -2.2788442376e+02  2.2788442376e+02  0.0000000000e+00 0. 9.
        6     2     1     2   103     0 -4.7307239054e+01 -8.2565758776e+01 -1.8462560873e+01  1.8913883398e+02  1.6241167746e+02  3.080264e-13 9.
       -6     2     1     2     0   102  4.7307239054e+01  8.2565758776e+01 -4.8546348926e+01  1.9962110375e+02  1.6863201855e+02  2.903480e-13 9.
       24     2     3     0     0     0  5.4368631069e+00 -1.0398509567e+02 -1.4489162215e+01  1.3187142438e+02  7.9609529229e+01  2.385332e-13 9.
        5     1     3     0   103     0 -5.2744102161e+01  2.1419336890e+01 -3.9733986577e+00  5.7267409602e+01  4.8000000000e+00 0. 9.
      -24     2     4     0     0     0  4.3425348655e+01  1.1796768622e+02 -1.4662240786e+01  1.5022942100e+02  8.0942953559e+01  3.889340e-14 9.
       -5     1     4     0     0   102  3.8818903994e+00 -3.5401927449e+01 -3.3884108139e+01  4.9391682747e+01  4.8000000000e+00 0. 9.
      -13     1     5     0     0     0  2.9817784324e+01 -1.9815806510e+01  1.5829672341e+01  3.9145320795e+01  1.0566000000e-01  7.858358e+05 9.
       14     1     5     0     0     0 -2.4380921217e+01 -8.4169289156e+01 -3.0318834557e+01  9.2726103581e+01  0.0000000000e+00 0. 9.
       13     1     7     0     0     0  1.4158008803e+01  2.8453904868e+01 -4.1529377355e+01  5.2295069204e+01  1.0566000000e-01  7.843280e+05 9.
      -14     1     7     0     0     0  2.9267339852e+01  8.9513781356e+01  2.6867136569e+01  9.7934351798e+01  0.0000000000e+00 0. 9.
#pdf   21   21  2.475008e-02  3.505914e-02  1.882356e+02  3.823908e+00  2.752582e+00
</event>
<event>
    12  9999  1.000000e+00  2.912625e+02  7.921791e-03  1.011248e-01
       21    -1     0     0   101   102  0.0000000000e+00  0.0000000000e+00  5.0352559699e+02  5.0352559699e+02  0.0000000000e+00 0. 9.
       21    -1     0     0   102   103  0.0000000000e+00  0.0000000000e+00 -1.9799305826e+02  1.9799305826e+02  0.0000000000e+00 0. 9.
        6     2     1     2   101     0  2.1520590868e+02 -9.9332527429e+01  2.8752891409e+02  4.0824372893e+02  1.6676190104e+02  1.252347e-14 9.
       -6     2     1     2     0   103 -2.1520590868e+02  9.9332527429e+01  1.8003624648e+01  2.9327492632e+02  1.7177170247e+02  1.063505e-13 9.
       24     2     3     0     0     0  9.8278785251e+01 -6.3276486767e+00  1.9389949361e+02  2.3185957986e+02  8.0393360312e+01  4.865712e-14 9.
        5     1     3     0   101     0  1.1692712343e+02 -9.3004878753e+01  9.3629420485e+01  1.7638414908e+02  4.8000000000e+00 0. 9.
      -24     2     4     0     0     0 -1.2665536016e+02  8.6521748774e+01 -5.0768675343e+01  1.8032367604e+02  8.0072320286e+01  2.973619e-14 9.
       -5     1     4     0     0   103 -8.8550548523e+01  1.2810778656e+01  6.8772299991e+01  1.1295125028e+02  4.8000000000e+00 0. 9.
      -13     1     5     0     0     0  2.5581827618e+01 -3.3079297105e+01  1.0993990987e+02  1.1762425238e+02  1.0566000000e-01  3.857204e+05 9.
       14     1     5     0     0     0  7.2696957633e+01  2.6751648428e+01  8.3959583732e+01  1.1423532747e+02  0.0000000000e+00 0. 9.
       13     1     7     0     0     0 -4.0953260394e+01  1.2773974838e+01  1.9583930690e+01  4.7158090243e+01  1.0566000000e-01  1.574652e+06 9.
      -14     1     7     0     0     0 -8.5702099763e+01  7.3747773935e+01 -7.0352606033e+01  1.3316558579e+02  0.0000000000e+00 0. 9.
#pdf   21   21  7.746548e-02  3.046047e-02  2.898104e+02  1.104936e+00  3.099648e+00
</event>
<event>
    12  9999  1.000000e+00  1.696088e+02  7.872891e-03  1.079059e-01
       21    -1     0     0   101   102  0.0000000000e+00  0.0000000000e+00  4.7630022217e+02  4.7630022217e+02  0.0000000000e+00 0. 9.
       21    -1     0     0   102   103  0.0000000000e+00  0.0000000000e+00 -6.4991295161e+01  6.4991295161e+01  0.0000000000e+00 0. 9.
        6     2     1     2   101     0  1.0686417505e+01  7.7675718030e+00  2.7696204558e+02  3.2447149680e+02  1.6852074903e+02  1.633386e-14 9.
       -6     2     1     2     0   103 -1.0686417505e+01 -7.7675718030e+00  1.3434688143e+02  2.1682002053e+02  1.6966821170e+02  1.048696e-13 9.
       24     2     3     0     0     0 -5.3042086518e+01  1.1181888752e+01  2.1527375773e+02  2.3558131375e+02  7.8849648337e+01  1.141105e-13 9.
        5     1     3     0   101     0  6.3728504022e+01 -3.4143169494e+00  6.1688287846e+01  8.8890183049e+01  4.8000000000e+00 0. 9.
      -24     2     4     0     0     0 -5.4133706272e+01 -5.0078175679e+01  9.1031762133e+01  1.4214007904e+02  8.0490611364e+01  9.639072e-14 9.
       -5     1     4     0     0   103  4.3447288767e+01  4.2310603876e+01  4.3315119299e+01  7.4679941493e+01  4.8000000000e+00 0. 9.
      -15     1     5     0     0     0 -3.6179623577e+01  3.9222421774e+01  7.8413749422e+01  9.4864306880e+01  1.7768200000e+00  2.325218e-02 9.
       16     1     5     0     0     0 -1.6862462940e+01 -2.8040533022e+01  1.3686000831e+02  1.4071700687e+02  0.0000000000e+00 0. 9.
       15     1     7     0     0     0  7.5106521942e+00 -3.8298310351e+01  1.1297001753e+01  4.0668781762e+01  1.7768200000e+00  3.529248e-02 9.
      -16     1     7     0     0     0 -6.1644358466e+01 -1.1779865328e+01  7.9734760381e+01  1.0147129728e+02  0.0000000000e+00 0. 9.
#pdf   21   21  7.327696e-02  9.998661e-03  1.690378e+02  1.240160e+00  8.099140e+00
</event>
<event>
    12  9999  1.000000e+00  1.941960e+02  7.885077e-03  1.061144e-01
       21    -1     0     0   101   102  0.0000000000e+00  0.0000000000e+00  7.3233677187e+02  7.3233677187e+02  0.0000000000e+00 0. 9.
       21    -1     0     0   103   101  0.0000000000e+00  0.0000000000e+00 -1.2291478809e+02  1.2291478809e+02  0.0000000000e+00 0. 9.
        6     2     1     2   103     0 -6.8897485555e+01 -6.1041725511e+01 -2.1180683316e+01  1.9545674904e+02  1.7111915039e+02  4.435766e-13 9.
       -6     2     1     2     0   102  6.8897485555e+01  6.1041725511e+01  6.3060266709e+02  6.5979481091e+02  1.7086987151e+02  3.567326e-13 9.
       24     2     3     0     0     0 -1.5874060794e+01  2.7856749610e+01 -2.6811265937e+01  9.1682157194e+01  8.1601407229e+01  3.138694e-14 9.
        5     1     3     0   103     0 -5.3023424761e+01 -8.8898475121e+01  5.6305826210e+00  1.0377459185e+02  4.8000000000e+00 0. 9.
      -24     2     4     0     0     0  1.5524623366e+01 -8.5913055675e+00  4.6355505671e+02  4.7104798161e+02  8.1780718497e+01  1.334520e-13 9.
       -5     1     4     0     0   102  5.3372862189e+01  6.9633031078e+01  1.6704761038e+02  1.8874682930e+02  4.8000000000e+00 0. 9.
      -15     1     5     0     0     0  1.1927922768e+01 -1.0474317460e+01  1.9663455349e+01  2.5333677850e+01  1.7768200000e+00  2.494812e-01 9.
       16     1     5     0     0     0 -2.7801983562e+01  3.8331067070e+01 -4.6474721286e+01  6.6348479345e+01  0.0000000000e+00 0. 9.
        1     1     7     0   104     0  2.3287128305e+00 -5.5718607025e+00 -1.1410516487e+00  6.1546270399e+00  3.3000000000e-01 0. 9.
       -2     1     7     0     0   104  1.3195910536e+01 -3.0194448650e+00  4.6469610836e+02  4.6489335457e+02  3.3000000000e-01 0. 9.
#pdf   21   21  1.126672e-01  1.890997e-02  1.940862e+02  6.940741e-01  4.845034e+00
</event>
<event>
    12  9999  1.000000e+00  1.874850e+02  7.881907e-03  1.065709e-01
       21    -1     0     0   101   102  0.0000000000e+00  0.0000000000e+00  4.2794806747e+02  4.2794806747e+02  0.0000000000e+00 0. 9.
       21    -1     0     0   102   103  0.0000000000e+00  0.0000000000e+00 -1.1149533652e+02  1.1149533652e+02  0.0000000000e+00 0. 9.
        6     2     1     2   101     0  8.7400233662e+00 -5.5407261819e+01  1.5372430690e+01  1.8046625891e+02  1.7083736801e+02  6.440227e-15 9.
       -6     2     1     2     0   103 -8.7400233662e+00  5.5407261819e+01  3.0108030025e+02  3.5897714508e+02  1.8726689728e+02  2.767228e-14 9.
       24     2     3     0     0     0  1.6711295921e+01 -9.7885134857e+01  3.3979190387e+01  1.3316760787e+02  8.1964988679e+01  9.356449e-14 9.
        5     1     3     0   101     0 -7.9712725548e+00  4.2477873037e+01 -1.8606759696e+01  4.7298651041e+01  4.8000000000e+00 0. 9.
      -24     2     4     0     0     0 -4.4445855799e+01  4.6946032953e+00  2.7793777287e+02  2.9260473532e+02  7.9816365131e+01  1.645156e-13 9.
       -5     1     4     0     0   103  3.5705832433e+01  5.0712658524e+01  2.3142527382e+01  6.6372409764e+01  4.8000000000e+00 0. 9.
       -1     1     5     0     0   104  4.8978150623e+01 -6.3881756347e+01  1.1977164319e+01  8.1383655592e+01  3.3000000000e-01 0. 9.
        2     1     5     0   104     0 -3.2266854702e+01 -3.4003378510e+01  2.2002026067e+01  5.1783952278e+01  3.3000000000e-01 0. 9.
        1     1     7     0   105     0  2.1169544504e+01 -1.9264812982e+00  3.5706283548e+01  4.1556088958e+01  3.3000000000e-01 0. 9.
       -2     1     7     0     0   105 -6.5615400303e+01  6.6210845935e+00  2.4223148932e+02  2.5104864636e+02  3.3000000000e-01 0. 9.
#pdf   21   21  6.583816e-02  1.715313e-02  1.798103e+02  1.402829e+00  5.267154e+00
</event>
<event>
    12  9999  1.000000e+00  1.862533e+02  7.881314e-03  1.066569e-01
       -1    -1     0     0     0   101  0.0000000000e+00  0.0000000000e+00  1.7354942720e+02  1.7354942720e+02  0.0000000000e+00 0. 9.
        1    -1     0     0   102     0  0.0000000000e+00  0.0000000000e+00 -2.0394519080e+02  2.0394519080e+02  0.0000000000e+00 0. 9.
       -6     2     1     2     0   101  1.2842991051e+00  7.3875092837e+01 -4.1848406502e+01  1.9124172965e+02  1.7135615327e+02  6.120910e-15 9.
        6     2     1     2   102     0 -1.2842991051e+00 -7.3875092837e+01  1.1452642906e+01  1.8625288835e+02  1.7058662498e+02  1.566384e-14 9.
      -24     2     3     0     0     0 -1.3000889642e+01 -7.6539658994e+00 -6.6101397765e+01  1.0485711515e+02  7.9987583324e+01  1.708958e-13 9.
       -5     1     3     0     0   101  1.4285188747e+01  8.1529058737e+01  2.4252991262e+01  8.6384614494e+01  4.8000000000e+00 0. 9.
       24     2     4     0     0     0  1.5582268723e+01  5.4888654532e+00 -3.7966424380e+01  9.1129793376e+01  8.1180386289e+01  4.556605e-14 9.
        5     1     4     0   102     0 -1.6866567828e+01 -7.9363958291e+01  4.9419067286e+01  9.5123094973e+01  4.8000000000e+00 0. 9.
        3     1     5     0   103     0 -1.0707266884e+01  2.9398645474e+01 -2.7471811698e+00  3.1412146125e+01  5.0000000000e-01 0. 9.
       -4     1     5     0     0   103 -2.2936227588e+00 -3.7052611373e+01 -6.3354216595e+01  7.3444969026e+01  1.5000000000e+00 0. 9.
       -3     1     7     0     0   104  1.0416460116e+01 -1.8323714457e+01  1.9483901138e+01  2.8707726423e+01  5.0000000000e-01 0. 9.
        4     1     7     0   104     0  5.1658086069e+00  2.3812579910e+01 -5.7450325518e+01  6.2422066953e+01  1.5000000000e+00 0. 9.
#pdf   -1    1  2.669991e-02  3.137618e-02  1.859004e+02  3.032933e-01  4.868161e-01
</event>
<event>
    12  9999  1.000000e+00  3.104113e+02  7.927589e-03  1.003839e-01
       21    -1     0     0   101   102  0.0000000000e+00  0.0000000000e+00  2.1120210061e+03  2.1120210061e+03  0.0000000000e+00 0. 9.
       21    -1     0     0   102   103  0.0000000000e+00  0.0000000000e+00 -5.3589062732e+01  5.3589062732e+01  0.0000000000e+00 0. 9.
        6     2     1     2   101     0  7.3172667206e+01 -2.4565415620e+02  1.4527257510e+03  1.4859721562e+03  1.7888805895e+02  5.212971e-13 9.
       -6     2     1     2     0   103 -7.3172667206e+01  2.4565415620e+02  6.0570619239e+02  6.7963791267e+02  1.7125272891e+02  1.552323e-13 9.
       24     2     3     0     0     0 -5.8479954756e+00 -7.6704909679e+01  3.5116006344e+02  3.6871743274e+02  8.1983613200e+01  4.101790e-14 9.
        5     1     3     0   101     0  7.9020662681e+01 -1.6894924652e+02  1.1015656875e+03  1.1172547234e+03  4.8000000000e+00 0. 9.
      -24     2     4     0     0     0 -1.9110546597e+01  3.6756930258e+01  2.1711856476e+02  2.3513352773e+02  8.0193639297e+01  3.193574e-14 9.
       -5     1     4     0     0   103 -5.4062120609e+01  2.0889722594e+02  3.8858762762e+02  4.4450438494e+02  4.8000000000e+00 0. 9.
       -3     1     5     0     0   104  9.5591725639e+00 -8.7707095038e+01  3.2238759955e+02  3.3424231725e+02  5.0000000000e-01 0. 9.
        4     1     5     0   104     0 -1.5407168039e+01  1.1002185358e+01  2.8772463892e+01  3.4475115490e+01  1.5000000000e+00 0. 9.
        3     1     7     0   105     0 -3.1764890119e+00  4.3173708508e+01  4.6076891901e+01  6.3224909300e+01  5.0000000000e-01 0. 9.
       -4     1     7     0     0   105 -1.5934057585e+01 -6.4167782499e+00  1.7104167286e+02  1.7190861843e+02  1.5000000000e+00 0. 9.
#pdf   21   21  3.249263e-01  8.244471e-03  3.082656e+02  7.034958e-02  9.453480e+00
</event>
<event>
    12  9999  1.000000e+00  1.852681e+02  7.880836e-03  1.067262e-01
       21    -1     0     0   101   102  0.0000000000e+00  0.0000000000e+00  1.9572306942e+02  1.9572306942e+02  0.0000000000e+00 0. 9.
       21    -1     0     0   102   103  0.0000000000e+00  0.0000000000e+00 -2.5767505175e+02  2.5767505175e+02  0.0000000000e+00 0. 9.
        6     2     1     2   101     0 -1.3979307744e+01  6.4501038999e+01  9.7394434300e+01  2.0714232757e+02  1.7048889395e+02  1.188435e-13 9.
       -6     2     1     2     0   103  1.3979307744e+01 -6.4501038999e+01 -1.5934641663e+02  2.4625579360e+02  1.7576925304e+02  7.684199e-14 9.
       24     2     3     0     0     0 -4.4498316586e+01  8.4690853042e+00  1.4487013201e+00  9.1818377702e+01  7.9854180626e+01  9.670671e-14 9.
        5     1     3     0   101     0  3.0519008843e+01  5.6031953695e+01  9.5945732980e+01  1.1532394987e+02  4.8000000000e+00 0. 9.
      -24     2     4     0     0     0  3.6335656690e+01 -8.2284318901e+01 -1.6910291857e+02  2.1568978777e+02  9.9173072931e+01  5.909010e-14 9.
       -5     1     4     0     0   103 -2.2356348946e+01  1.7783279902e+01  9.7565019440e+00  3.0566005831e+01  4.8000000000e+00 0. 9.
       -1     1     5     0     0   104 -4.0601811710e+01 -1.6230082675e+01  3.0630402239e+01  5.3387762072e+01  3.3000000000e-01 0. 9.
        2     1     5     0   104     0 -3.8965048767e+00  2.4699167980e+01 -2.9181700919e+01  3.8430615630e+01  3.3000000000e-01 0. 9.
        3     1     7     0   105     0 -2.6814451757e+01 -2.4710977831e+01 -9.7820664221e+01  1.0439722026e+02  5.0000000000e-01 0. 9.
       -4     1     7     0     0   105  6.3150108446e+01 -5.7573341070e+01 -7.1282254354e+01  1.1129256752e+02  1.5000000000e+00 0. 9.
#pdf   21   21  3.011124e-02  3.964232e-02  1.828176e+02  3.191684e+00  2.437915e+00
</event>
<event>
    12  9999  1.000000e+00  1.815275e+02  7.879000e-03  1.069936e-01
       21    -1     0     0   101   102  0.0000000000e+00  0.0000000000e+00  3.8663614924e+02  3.8663614924e+02  0.0000000000e+00 0. 9.
       21    -1     0     0   103   101  0.0000000000e+00  0.0000000000e+00 -9.1669413485e+01  9.1669413485e+01  0.0000000000e+00 0. 9.
        6     2     1     2   103     0 -4.5398072457e+01  4.1383562734e+01  8.3865727455e+01  1.9969521614e+02  1.7050259488e+02  1.639029e-13 9.
       -6     2     1     2     0   102  4.5398072457e+01 -4.1383562734e+01  2.1110100830e+02  2.7861034658e+02  1.7113300462e+02  3.537127e-15 9.
       24     2     3     0     0     0 -2.7957759371e+01 -4.0285729451e+01  3.1350352327e+01  1.0092810405e+02  8.2456420545e+01  3.033993e-13 9.
        5     1     3     0   103     0 -1.7440313086e+01  8.1669292185e+01  5.2515375128e+01  9.8767112094e+01  4.8000000000e+00 0. 9.
      -24     2     4     0     0     0 -1.3776891777e+00 -4.8475149520e+01  2.1100978197e+02  2.3105710482e+02  8.0687789985e+01  3.313350e-14 9.
       -5     1     4     0     0   102  4.6775761635e+01  7.0915867863e+00  9.1226326811e-02  4.7553241760e+01  4.8000000000e+00 0. 9.
      -13     1     5     0     0     0 -2.3700641011e+01 -1.2192626351e+00  5.1544380368e+01  5.6745407720e+01  1.0566000000e-01  2.095138e+05 9.
       14     1     5     0     0     0 -4.2571183597e+00 -3.9066466816e+01 -2.0194028041e+01  4.4182696327e+01  0.0000000000e+00 0. 9.
        3     1     7     0   104     0 -3.2790038123e+01 -1.0192801698e+00  1.1347616198e+02  1.1812415024e+02  5.0000000000e-01 0. 9.
       -4     1     7     0     0   104  3.1412348945e+01 -4.7455869351e+01  9.7533619993e+01  1.1293295458e+02  1.5000000000e+00 0. 9.
#pdf   21   21  5.948248e-02  1.410299e-02  1.812311e+02  1.577057e+00  6.188530e+00
</event>
<event>
    12  9999  1.000000e+00  2.525563e+02  7.908837e-03  1.028249e-01
       21    -1     0     0   101   102  0.0000000000e+00  0.0000000000e+00  1.3608783975e+03  1.3608783975e+03  0.0000000000e+00 0. 9.
       21    -1     0     0   103   101  0.0000000000e+00  0.0000000000e+00 -4.8806865969e+01  4.8806865969e+01  0.0000000000e+00 0. 9.
        6     2     1     2   103     0  7.3889839217e+01 -1.7151936355e+02  5.1351431298e+02  5.7188280461e+02  1.6874356925e+02  2.073813e-13 9.
       -6     2     1     2     0   102 -7.3889839217e+01  1.7151936355e+02  7.9855721851e+02  8.3780245882e+02  1.7129135518e+02  1.811983e-13 9.
       24     2     3     0     0     0  1.1604525221e+02 -1.2307091129e+02  3.8375501895e+02  4.2702133368e+02  8.0413649889e+01  7.519424e-14 9.
        5     1     3     0   103     0 -4.2155412994e+01 -4.8448452254e+01  1.2975929404e+02  1.4486147093e+02  4.8000000000e+00 0. 9.
      -24     2     4     0     0     0 -1.5898212763e+01  1.6085465686e+02  4.6045274471e+02  4.9456137749e+02  8.0294783105e+01  1.742728e-13 9.
       -5     1     4     0     0   102 -5.7991626454e+01  1.0664706689e+01  3.3810447380e+02  3.4324108133e+02  4.8000000000e+00 0. 9.
       -3     1     5     0     0   104  8.6207073249e+01 -6.6306336912e+01  3.1377845823e+02  3.3209239775e+02  5.0000000000e-01 0. 9.
        4     1     5     0   104     0  2.9838178961e+01 -5.6764574380e+01  6.9976560713e+01  9.4928935934e+01  1.5000000000e+00 0. 9.
        1     1     7     0   105     0 -3.6527793753e+01  4.7312089155e+01  2.1798599549e+02  2.2603255656e+02  3.3000000000e-01 0. 9.
       -2     1     7     0     0   105  2.0629580990e+01  1.1354256770e+02  2.4246674922e+02  2.6852882093e+02  3.3000000000e-01 0. 9.
#pdf   21   21  2.093659e-01  7.508749e-03  2.517002e+02  2.335911e-01  1.011254e+01
</event>
<event>
    12  9999  1.000000e+00  1.855465e+02  7.880971e-03  1.067066e-01
       21    -1     0     0   101   102  0.0000000000e+00  0.0000000000e+00  4.6674593973e+02  4.6674593973e+02  0.0000000000e+00 0. 9.
       21    -1     0     0   103   101  0.0000000000e+00  0.0000000000e+00 -7.3836302650e+01  7.3836302650e+01  0.0000000000e+00 0. 9.
        6     2     1     2   103     0 -6.7176187095e+01  1.9572223781e+01  1.8733867236e+02  2.6334396738e+02  1.7134338311e+02  1.495780e-14 9.
       -6     2     1     2     0   102  6.7176187095e+01 -1.9572223781e+01  2.0557096472e+02  2.7723827500e+02  1.7235407606e+02  9.792439e-14 9.
       24     2     3     0     0     0  8.3590002737e+00  4.5062920336e+00  2.6065868732e+01  8.4557770984e+01  7.9877453437e+01  4.927749e-14 9.
        5     1     3     0   103     0 -7.5535187369e+01  1.5065931747e+01  1.6127280363e+02  1.7878619640e+02  4.8000000000e+00 0. 9.
      -24     2     4     0     0     0  2.0657746464e+01  1.2888143995e+01  6.6381102310e+01  1.2685709735e+02  1.0532533247e+02  7.104824e-14 9.
       -5     1     4     0     0   102  4.6518440631e+01 -3.2460367776e+01  1.3918986241e+02  1.5038117765e+02  4.8000000000e+00 0. 9.
      -13     1     5     0     0     0  3.6580478203e+01  1.0795320345e+01  3.7479037903e+01  5.3472981711e+01  1.0566000000e-01  2.853392e+04 9.
       14     1     5     0     0     0 -2.8221477929e+01 -6.2890283117e+00 -1.1413169171e+01  3.1084789273e+01  0.0000000000e+00 0. 9.
        1     1     7     0   104     0  4.1539924747e+01  2.3281176003e+01  8.4718360455e+01  9.7184813640e+01  3.3000000000e-01 0. 9.
       -2     1     7     0     0   104 -2.0882178284e+01 -1.0393032008e+01 -1.8337258145e+01  2.9672283709e+01  3.3000000000e-01 0. 9.
#pdf   21   21  7.180707e-02  1.135943e-02  1.850791e+02  1.261819e+00  7.349796e+00
</event>
<event>
    12  9999  1.000000e+00  1.772325e+02  7.876845e-03  1.073093e-01
       21    -1     0     0   101   102  0.0000000000e+00  0.0000000000e+00  1.4267534871e+03  1.4267534871e+03  0.0000000000e+00 0. 9.
       21    -1     0     0   102   103  0.0000000000e+00  0.0000000000e+00 -2.8221291257e+01  2.8221291257e+01  0.0000000000e+00 0. 9.
        6     2     1     2   101     0 -4.7751291888e+01  2.3251359922e+00  1.0418815338e+03  1.0569298738e+03  1.7116668895e+02  3.510072e-15 9.
       -6     2     1     2     0   103  4.7751291888e+01 -2.3251359922e+00  3.5665066197e+02  3.9804490454e+02  1.7016009877e+02  3.718970e-14 9.
       24     2     3     0     0     0 -4.9562023803e+01  5.8163524682e+01  5.0459937127e+02  5.1672957147e+02  8.0929195852e+01  1.020498e-13 9.
        5     1     3     0   101     0  1.8107319152e+00 -5.5838388690e+01  5.3728216256e+02  5.4020030230e+02  4.8000000000e+00 0. 9.
      -24     2     4     0     0     0  3.6712909014e+01 -2.7138033513e+01  3.5918321879e+02  3.7035050757e+02  7.7862720492e+01  2.255642e-14 9.
       -5     1     4     0     0   103  1.1038382874e+01  2.4812897521e+01 -2.5325568186e+00  2.7694396976e+01  4.8000000000e+00 0. 9.
       -3     1     5     0     0   104 -4.6175481380e+01  7.8237898999e+01  4.1746055066e+02  4.2723167635e+02  5.0000000000e-01 0. 9.
        4     1     5     0   104     0 -3.3865424226e+00 -2.0074374318e+01  8.7138820615e+01  8.9497895126e+01  1.5000000000e+00 0. 9.
        3     1     7     0   105     0  1.6866404352e+01 -2.6950963866e+01  3.4360997132e+02  3.4507809614e+02  5.0000000000e-01 0. 9.
       -4     1     7     0     0   105  1.9846504662e+01 -1.8706964700e-01  1.5573247478e+01  2.5272411427e+01  1.5000000000e+00 0. 9.
#pdf   21   21  2.195005e-01  4.341737e-03  1.767486e+02  2.260182e-01  1.476428e+01
</event>
<event>
    12  9999  1.000000e+00  3.504490e+02  7.938660e-03  9.900232e-02
       21    -1     0     0   101   102  0.0000000000e+00  0.0000000000e+00  1.7233952676e+02  1.7233952676e+02  0.0000000000e+00 0. 9.
       21    -1     0     0   102   103  0.0000000000e+00  0.0000000000e+00 -7.1680325999e+02  7.1680325999e+02  0.0000000000e+00 0. 9.
        6     2     1     2   101     0 -9.2063258029e+01  2.9193879115e+02 -2.3797562565e+02  4.2324462429e+02  1.6970477994e+02  9.673327e-14 9.
       -6     2     1     2     0   103  9.2063258029e+01 -2.9193879115e+02 -3.0648810758e+02  4.6589816245e+02  1.7152911250e+02  1.248870e-13 9.
       24     2     3     0     0     0 -3.3180958414e+01  1.9459319816e+02 -1.0448151207e+02  2.4778235472e+02  1.0729501469e+02  3.056675e-15 9.
        5     1     3     0   101     0 -5.8882299615e+01  9.7345592984e+01 -1.3349411358e+02  1.7546226957e+02  4.8000000000e+00 0. 9.
      -24     2     4     0     0     0  1.9649749754e+01 -7.8952959970e+01 -1.5938691889e+02  1.9707018739e+02  8.2539604388e+01  1.119333e-13 9.
       -5     1     4     0     0   103  7.2413508274e+01 -2.1298583118e+02 -1.4710118869e+02  2.6882797506e+02  4.8000000000e+00 0. 9.
      -13     1     5     0     0     0  3.4932621350e+01  1.0332596599e+02 -3.5818965199e+01  1.1480223306e+02  1.0566000000e-01  1.277391e+05 9.
       14     1     5     0     0     0 -6.8113579764e+01  9.1267232168e+01 -6.8662546871e+01  1.3298012167e+02  0.0000000000e+00 0. 9.
       11     1     7     0     0     0  7.4552661882e-01 -3.5677055473e+01 -5.5075532937e+00  3.6107357154e+01  5.1100000000e-04 0. 9.
      -12     1     7     0     0     0  1.8904223136e+01 -4.3275904497e+01 -1.5387936559e+02  1.6096283024e+02  0.0000000000e+00 0. 9.
#pdf   21   21  2.651377e-02  1.102774e-01  3.500052e+02  3.516070e+00  6.701963e-01
</event>
<event>
    12  9999  1.000000e+00  1.894383e+02  7.882841e-03  1.064360e-01
       21    -1     0     0   101   102  0.0000000000e+00  0.0000000000e+00  2.8649505307e+02  2.8649505307e+02  0.0000000000e+00 0. 9.
       21    -1     0     0   103   101  0.0000000000e+00  0.0000000000e+00 -1.2825935683e+02  1.2825935683e+02  0.0000000000e+00 0. 9.
        6     2     1     2   103     0 -3.2891599392e+01  7.5395246651e+01  4.7445559863e+01  1.9536281790e+02  1.7073151126e+02  2.436255e-14 9.
       -6     2     1     2     0   102  3.2891599392e+01 -7.5395246651e+01  1.1079013638e+02  2.1939159200e+02  1.7056352422e+02  2.226136e-13 9.
       24     2     3     0     0     0  3.7974366401e+01  3.3463988325e+01 -9.0882504577e+00  9.5366181744e+01  8.0313269799e+01  1.878276e-13 9.
        5     1     3     0   103     0 -7.0865965793e+01  4.1931258327e+01  5.6533810321e+01  9.9996636154e+01  4.8000000000e+00 0. 9.
      -24     2     4     0     0     0  1.8547519388e+01 -1.0330898784e+01 -7.6323051680e+00  8.3428226876e+01  8.0319854409e+01  4.324232e-14 9.
       -5     1     4     0     0   102  1.4344080004e+01 -6.5064347868e+01  1.1842244154e+02  1.3596336512e+02  4.8000000000e+00 0. 9.
       -3     1     5     0     0   104  7.0728021251e+00  1.0989449461e+01  3.4787870780e+01  3.7165016921e+01  5.0000000000e-01 0. 9.
        4     1     5     0   104     0  3.0901564276e+01  2.2474538864e+01 -4.3876121238e+01  5.8201164823e+01  1.5000000000e+00 0. 9.
        1     1     7     0   105     0 -2.8078513008e+01 -1.4660484365e+01  1.0262033966e+01  3.3297911882e+01  3.3000000000e-01 0. 9.
       -2     1     7     0     0   105  4.6626032397e+01  4.3295855812e+00 -1.7894339134e+01  5.0130314994e+01  3.3000000000e-01 0. 9.
#pdf   21   21  4.407616e-02  1.973221e-02  1.893627e+02  2.181526e+00  4.672366e+00
</event>
<event>
    12  9999  1.000000e+00  1.880059e+02  7.882157e-03  1.065348e-01
       21    -1     0     0   101   102  0.0000000000e+00  0.0000000000e+00  2.0649290826e+02  2.0649290826e+02  0.0000000000e+00 0. 9.
       21    -1     0     0   103   101  0.0000000000e+00  0.0000000000e+00 -1.9645699375e+02  1.9645699375e+02  0.0000000000e+00 0. 9.
        6     2     1     2   103     0  6.6943624686e+01 -3.0506706641e+01 -6.7275829461e+01  1.9858289862e+02  1.7174697190e+02  1.481158e-13 9.
       -6     2     1     2     0   102 -6.6943624686e+01  3.0506706641e+01  7.7311743975e+01  2.0436700339e+02  1.7428900792e+02  1.401147e-13 9.
       24     2     3     0     0     0  1.8600489124e+01  1.8234134846e+01 -9.2789711123e+01  1.2518857634e+02  7.9898606293e+01  2.391649e-14 9.
        5     1     3     0   103     0  4.8343135563e+01 -4.8740841487e+01  2.5513881662e+01  7.3394322276e+01  4.8000000000e+00 0. 9.
      -24     2     4     0     0     0 -7.9106675630e+01  7.7547108576e+01  4.1649098992e+01  1.4390541666e+02  8.1870026992e+01  6.174300e-14 9.
       -5     1     4     0     0   102  1.2163050944e+01 -4.7040401934e+01  3.5662644983e+01  6.0461586727e+01  4.8000000000e+00 0. 9.
      -11     1     5     0     0     0 -5.6600207923e+00  4.5368435472e+01 -3.8206688077e+01  5.9582562773e+01  5.1100000000e-04 0. 9.
       12     1     5     0     0     0  2.4260509916e+01 -2.7134300626e+01 -5.4583023046e+01  6.5606013571e+01  0.0000000000e+00 0. 9.
        1     1     7     0   104     0 -1.6816878895e+01  1.3164393183e+01 -2.4531488786e+01  3.2527088798e+01  3.3000000000e-01 0. 9.
       -2     1     7     0     0   104 -6.2289796735e+01  6.4382715393e+01  6.6180587778e+01  1.1137832786e+02  3.3000000000e-01 0. 9.
#pdf   21   21  3.176814e-02  3.022415e-02  1.868399e+02  3.030325e+00  3.177961e+00
</event>
<event>
    12  9999  1.000000e+00  1.908952e+02  7.883531e-03  1.063364e-01
       21    -1     0     0   101   102  0.0000000000e+00  0.0000000000e+00  9.4160508850e+01  9.4160508850e+01  0.0000000000e+00 0. 9.
       21    -1     0     0   103   101  0.0000000000e+00  0.0000000000e+00 -5.5160371496e+02  5.5160371496e+02  0.0000000000e+00 0. 9.
        6     2     1     2   103     0  4.9437542677e+01 -6.6650001984e+01 -4.0452923289e+02  4.4702276855e+02  1.7116997970e+02  4.508543e-14 9.
       -6     2     1     2     0   102 -4.9437542677e+01  6.6650001984e+01 -5.2913973223e+01  1.9874145526e+02  1.7266147250e+02  1.121071e-13 9.
       24     2     3     0     0     0  9.1097612660e+01 -6.4674357321e+01 -2.3496025875e+02  2.7233406945e+02  8.0485866238e+01  6.668227e-14 9.
        5     1     3     0   103     0 -4.1660069982e+01 -1.9756446628e+00 -1.6956897414e+02  1.7468869910e+02  4.8000000000e+00 0. 9.
      -24     2     4     0     0     0 -8.0239945395e+01  3.6525044427e+01  1.0985398732e+01  1.2152441817e+02  8.2915484192e+01  2.071108e-15 9.
       -5     1     4     0     0   102  3.0802402717e+01  3.0124957558e+01 -6.3899371956e+01  7.7217037092e+01  4.8000000000e+00 0. 9.
       -3     1     5     0     0   104  1.8164608708e+01 -6.1845579926e+01 -1.0234396212e+02  1.2095191337e+02  5.0000000000e-01 0. 9.
        4     1     5     0   104     0  7.2933003952e+01 -2.8287773952e+00 -1.3261629663e+02  1.5138215608e+02  1.5000000000e+00 0. 9.
        1     1     7     0   105     0 -1.9586330240e+01  5.3910691511e+01  1.1119858739e+01  5.8427280870e+01  3.3000000000e-01 0. 9.
       -2     1     7     0     0   105 -6.0653615155e+01 -1.7385647084e+01 -1.3446000664e-01  6.3097137300e+01  3.3000000000e-01 0. 9.
#pdf   21   21  1.448623e-02  8.486211e-02  1.902247e+02  6.054929e+00  1.021879e+00
</event>
<event>
    12  9999  1.000000e+00  3.283533e+02  7.932713e-03  9.973916e-02
       21    -1     0     0   101   102  0.0000000000e+00  0.0000000000e+00  1.5988803749e+02  1.5988803749e+02  0.0000000000e+00 0. 9.
       21    -1     0     0   103   101  0.0000000000e+00  0.0000000000e+00 -6.7438078106e+02  6.7438078106e+02  0.0000000000e+00 0. 9.
        6     2     1     2   103     0  2.7067527988e+02 -6.3991502599e+01 -2.5281183201e+02  4.1262048061e+02  1.7024047424e+02  4.778572e-15 9.
       -6     2     1     2     0   102 -2.7067527988e+02  6.3991502599e+01 -2.6168091157e+02  4.2164833794e+02  1.7874675344e+02  8.409213e-15 9.
       24     2     3     0     0     0  1.4024428171e+02 -8.8669934800e+00 -2.0815169830e+02  2.6406569499e+02  8.1587251668e+01  3.242885e-13 9.
        5     1     3     0   103     0  1.3043099817e+02 -5.5124509119e+01 -4.4660133703e+01  1.4855478562e+02  4.8000000000e+00 0. 9.
      -24     2     4     0     0     0 -2.2679519361e+02  3.6590014093e+01 -2.7572264490e+02  3.6782906798e+02  8.0624793743e+01  6.836488e-14 9.
       -5     1     4     0     0   102 -4.3880086272e+01  2.7401488506e+01  1.4041733335e+01  5.3819269957e+01  4.8000000000e+00 0. 9.
       -3     1     5     0     0   104  6.9533291032e+01  3.3865730094e+01 -7.7615527915e+01  1.0957274483e+02  5.0000000000e-01 0. 9.
        4     1     5     0   104     0  7.0710990683e+01 -4.2732723574e+01 -1.3053617039e+02  1.5449295015e+02  1.5000000000e+00 0. 9.
        1     1     7     0   105     0 -5.8123783682e+01  3.1265705690e+01 -1.2595366192e+02  1.4219828562e+02  3.3000000000e-01 0. 9.
       -2     1     7     0     0   105 -1.6867140993e+02  5.3243084023e+00 -1.4976898298e+02  2.2563078236e+02  3.3000000000e-01 0. 9.
#pdf   21   21  2.459816e-02  1.037509e-01  3.261010e+02  3.781312e+00  7.375556e-01
</event>
<event>
    12  9999  1.000000e+00  3.988142e+02  7.950491e-03  9.757179e-02
       21    -1     0     0   101   102  0.0000000000e+00  0.0000000000e+00  7.3793789662e+02  7.3793789662e+02  0.0000000000e+00 0. 9.
       21    -1     0     0   102   103  0.0000000000e+00  0.0000000000e+00 -2.5334388064e+02  2.5334388064e+02  0.0000000000e+00 0. 9.
        6     2     1     2   101     0  3.3115359446e+02 -1.4199765142e+02  4.3379978667e+02  5.8931076429e+02  1.7111074152e+02  1.226957e-13 9.
       -6     2     1     2     0   103 -3.3115359446e+02  1.4199765142e+02  5.0794229305e+01  4.0197101297e+02  1.7080575343e+02  7.559329e-14 9.
       24     2     3     0     0     0  1.1604850445e+02 -1.1871873660e+02  2.0643907650e+02  2.7541899927e+02  7.5346791878e+01  1.213169e-13 9.
        5     1     3     0   101     0  2.1510509001e+02 -2.3278914826e+01  2.2736071016e+02  3.1389176502e+02  4.8000000000e+00 0. 9.
      -24     2     4     0     0     0 -1.5259449928e+02  6.2103953564e+01  8.6404897794e+01  2.0308030645e+02  8.1448279586e+01  1.176902e-14 9.
       -5     1     4     0     0   103 -1.7855909518e+02  7.9893697859e+01 -3.5610668490e+01  1.9889070652e+02  4.8000000000e+00 0. 9.
       -3     1     5     0     0   104  8.5280140661e+01 -6.0767893651e+01  1.7182679453e+02  2.0122161069e+02  5.0000000000e-01 0. 9.
        4     1     5     0   104     0  3.0768363793e+01 -5.7950842946e+01  3.4612281970e+01  7.4197388578e+01  1.5000000000e+00 0. 9.
       15     1     7     0     0     0 -1.3032967397e+02  7.8156224889e+01  5.5620987917e+01  1.6183655580e+02  1.7768200000e+00  1.156667e-01 9.
      -16     1     7     0     0     0 -2.2264825306e+01 -1.6052271325e+01  3.0783909877e+01  4.1243750653e+01  0.0000000000e+00 0. 9.
#pdf   21   21  1.135289e-01  3.897598e-02  3.987488e+02  6.328982e-01  2.382118e+00
</event>
<event>
    12  9999  1.000000e+00  4.205888e+02  7.955367e-03  9.699563e-02
       21    -1     0     0   101   102  0.0000000000e+00  0.0000000000e+00  9.0579289595e+02  9.0579289595e+02  0.0000000000e+00 0. 9.
       21    -1     0     0   102   103  0.0000000000e+00  0.0000000000e+00 -2.1826788464e+02  2.1826788464e+02  0.0000000000e+00 0. 9.
        6     2     1     2   101     0  1.0269061526e+01  3.8410471591e+02  5.2623776167e+02  6.7377445365e+02  1.7147578887e+02  3.820753e-13 9.
       -6     2     1     2     0   103 -1.0269061526e+01 -3.8410471591e+02  1.6128724963e+02  4.5028632695e+02  1.7059400028e+02  4.514717e-13 9.
       24     2     3     0     0     0  5.3608803492e+01  1.6074337742e+02  2.9437068479e+02  3.4888369954e+02  7.9708208747e+01  2.676715e-14 9.
        5     1     3     0   101     0 -4.3339741966e+01  2.2336133849e+02  2.3186707688e+02  3.2489075411e+02  4.8000000000e+00 0. 9.
      -24     2     4     0     0     0  1.6698039847e+01 -7.6875092337e+01  5.3415649244e+01  1.2351945542e+02  7.8836666128e+01  3.833333e-14 9.
       -5     1     4     0     0   103 -2.6967101373e+01 -3.0722962357e+02  1.0787160039e+02  3.2676687153e+02  4.8000000000e+00 0. 9.
       -1     1     5     0     0   104 -1.7697880359e+01  1.2711834287e+01  2.3308519249e+01  3.1909272473e+01  3.3000000000e-01 0. 9.
        2     1     5     0   104     0  7.1306683851e+01  1.4803154314e+02  2.7106216554e+02  3.1697442706e+02  3.3000000000e-01 0. 9.
        3     1     7     0   105     0  3.1590623212e+01 -1.0850382258e+01 -5.3994644632e+00  3.3839362975e+01  5.0000000000e-01 0. 9.
       -4     1     7     0     0   105 -1.4892583365e+01 -6.6024710080e+01  5.8815113707e+01  8.9680092444e+01  1.5000000000e+00 0. 9.
#pdf   21   21  1.393528e-01  3.357967e-02  4.204096e+02  4.561741e-01  2.769444e+00
</event>
<event>
    12  9999  1.000000e+00  2.603859e+02  7.911607e-03  1.024560e-01
       -2    -1     0     0     0   101  0.0000000000e+00  0.0000000000e+00  7.4180837188e+01  7.4180837188e+01  0.0000000000e+00 0. 9.
        2    -1     0     0   102     0  0.0000000000e+00  0.0000000000e+00 -1.0254268897e+03  1.0254268897e+03  0.0000000000e+00 0. 9.
       -6     2     1     2     0   101  1.8549953630e+02 -6.3619457180e+01 -2.9440057452e+02  3.9303860116e+02  1.7131879762e+02  5.410019e-14 9.
        6     2     1     2   102     0 -1.8549953630e+02  6.3619457180e+01 -6.5684547801e+02  7.0656912575e+02  1.7127882001e+02  1.332237e-13 9.
      -24     2     3     0     0     0  1.6248706421e+02 -1.0721672476e+02 -2.4857097928e+02  3.2555758596e+02  7.9389784801e+01  4.368435e-14 9.
       -5     1     3     0     0   101  2.3012472086e+01  4.3597267578e+01 -4.5829595242e+01  6.7481015196e+01  4.8000000000e+00 0. 9.
       24     2     4     0     0     0 -3.3735979732e+01  5.6699844868e+01 -2.0459023728e+02  2.2945498752e+02  8.0246105012e+01  2.012267e-13 9.
        5     1     4     0   102     0 -1.5176355657e+02  6.9196123120e+00 -4.5225524073e+02  4.7711413824e+02  4.8000000000e+00 0. 9.
       13     1     5     0     0     0  8.5798667366e+01 -9.1573886379e+01 -1.1225261622e+02  1.6836819474e+02  1.0566000000e-01  1.008539e+06 9.
      -14     1     5     0     0     0  7.6688396847e+01 -1.5642838379e+01 -1.3631836306e+02  1.5718939122e+02  0.0000000000e+00 0. 9.
       -1     1     7     0     0   103 -2.3696726311e+00  1.5449224798e+01 -1.6094344841e+02  1.6170094737e+02  3.3000000000e-01 0. 9.
        2     1     7     0   103     0 -3.1366307101e+01  4.1250620070e+01 -4.3646788873e+01  6.7754040147e+01  3.3000000000e-01 0. 9.
#pdf   -2    2  1.141244e-02  1.577580e-01  2.603727e+02  4.886567e-01  5.009230e-01
</event>
<event>
    12  9999  1.000000e+00  1.849770e+02  7.880694e-03  1.067468e-01
        1    -1     0     0   101     0  0.0000000000e+00  0.0000000000e+00  3.6640467375e+02  3.6640467375e+02  0.0000000000e+00 0. 9.
       -1    -1     0     0     0   102  0.0000000000e+00  0.0000000000e+00 -1.2245781527e+02  1.2245781527e+02  0.0000000000e+00 0. 9.
        6     2     1     2   101     0  6.7622625797e+01 -6.8401363683e+00  2.4650882403e+00  1.8417356994e+02  1.7115554394e+02  2.726400e-13 9.
       -6     2     1     2     0   102 -6.7622625797e+01  6.8401363683e+00  2.4148177025e+02  3.0468891907e+02  1.7292277195e+02  6.845501e-13 9.
       24     2     3     0     0     0  4.0756208889e+01  1.0534319819e+01 -6.5012107797e+01  1.0934117007e+02  7.7180806266e+01  1.152259e-13 9.
        5     1     3     0   101     0  2.6866416908e+01 -1.7374456187e+01  6.7477196037e+01  7.4832399870e+01  4.8000000000e+00 0. 9.
      -24     2     4     0     0     0  1.5135625549e+01 -1.8661450372e+01  5.6664117434e+01  1.0053244995e+02  7.9489712531e+01  4.166980e-14 9.
       -5     1     4     0     0   102 -8.2758251346e+01  2.5501586741e+01  1.8481765281e+02  2.0415646912e+02  4.8000000000e+00 0. 9.
      -11     1     5     0     0     0  1.6176536859e+01 -5.6035318477e+00  1.5830615320e+01  2.3317124514e+01  5.1100000000e-04 0. 9.
       12     1     5     0     0     0  2.4579672030e+01  1.6137851666e+01 -8.0842723117e+01  8.6024045560e+01  0.0000000000e+00 0. 9.
        1     1     7     0   103     0 -1.2886239640e+01 -4.2569826701e+01  4.1038335301e+01  6.0518585424e+01  3.3000000000e-01 0. 9.
       -2     1     7     0     0   103  2.8021865189e+01  2.3908376328e+01  1.5625782132e+01  4.0013864529e+01  3.3000000000e-01 0. 9.
#pdf    1   -1  5.636995e-02  1.883966e-02  1.841571e+02  4.201000e-01  3.786437e-01
</event>
<event>
    12  9999  1.000000e+00  1.938558e+02  7.884919e-03  1.061371e-01
       21    -1     0     0   101   102  0.0000000000e+00  0.0000000000e+00  3.0152138046e+01  3.0152138046e+01  0.0000000000e+00 0. 9.
       21    -1     0     0   103   101  0.0000000000e+00  0.0000000000e+00 -1.5399512664e+03  1.5399512664e+03  0.0000000000e+00 0. 9.
        6     2     1     2   103     0 -6.6385168680e+01 -6.5561731890e+01 -1.0976130934e+03  1.1145965587e+03  1.6989895401e+02  4.746111e-14 9.
       -6     2     1     2     0   102  6.6385168680e+01  6.5561731890e+01 -4.1218603491e+02  4.5550684569e+02  1.6995242802e+02  9.336362e-15 9.
       24     2     3     0     0     0 -9.2564991243e+01 -2.2257287655e+01 -9.4167599124e+02  9.5058412677e+02  8.8277092922e+01  4.617956e-14 9.
        5     1     3     0   103     0  2.6179822563e+01 -4.3304444235e+01 -1.5593710217e+02  1.6401243194e+02  4.8000000000e+00 0. 9.
      -24     2     4     0     0     0  1.1054662920e+02  5.4867331740e+01 -3.2365421797e+02  3.5587990456e+02  8.1654591635e+01  1.711477e-13 9.
       -5     1     4     0     0   102 -4.4161460522e+01  1.0694400150e+01 -8.8531816933e+01  9.9626941133e+01  4.8000000000e+00 0. 9.
       -3     1     5     0     0   104 -3.3311171534e+01  2.8558239234e+01 -1.9706381852e+02  2.0189008333e+02  5.0000000000e-01 0. 9.
        4     1     5     0   104     0 -5.9253819709e+01 -5.0815526889e+01 -7.4461217272e+02  7.4869404344e+02  1.5000000000e+00 0. 9.
       11     1     7     0     0     0  2.1001305809e+01  3.0338892997e+01 -2.8959504278e+01  4.6905822263e+01  5.1100000000e-04 0. 9.
      -12     1     7     0     0     0  8.9545323393e+01  2.4528438743e+01 -2.9469471370e+02  3.0897408229e+02  0.0000000000e+00 0. 9.
#pdf   21   21  4.638790e-03  2.369156e-01  1.938324e+02  1.417016e+01  1.880765e-01
</event>
<event>
    12  9999  1.000000e+00  2.570423e+02  7.910434e-03  1.026118e-01
       21    -1     0     0   101   102  0.0000000000e+00  0.0000000000e+00  3.8423123609e+02  3.8423123609e+02  0.0000000000e+00 0. 9.
       21    -1     0     0   103   101  0.0000000000e+00  0.0000000000e+00 -1.9961255997e+02  1.9961255997e+02  0.0000000000e+00 0. 9.
        6     2     1     2   103     0 -1.9031300523e+02  2.5450911972e+01 -1.6368390690e+01  2.5750952267e+02  1.7081112719e+02  9.953121e-14 9.
       -6     2     1     2     0   102  1.9031300523e+02 -2.5450911972e+01  2.0098706681e+02  3.2633427339e+02  1.7097212663e+02  3.977349e-14 9.
       24     2     3     0     0     0 -1.4389577388e+02  7.9699181622e+01  3.4859397556e+00  1.8324870821e+02  8.0684471824e+01  2.485364e-16 9.
        5     1     3     0   103     0 -4.6417231351e+01 -5.4248269649e+01 -1.9854330445e+01  7.4260814456e+01  4.8000000000e+00 0. 9.
      -24     2     4     0     0     0  1.7644120358e+02 -4.7719737790e+01  1.0280625464e+02  2.2459519848e+02  8.0406501566e+01  1.400315e-14 9.
       -5     1     4     0     0   102  1.3871801652e+01  2.2268825818e+01  9.8180812170e+01  1.0173907491e+02  4.8000000000e+00 0. 9.
       -3     1     5     0     0   104 -2.3048857518e+01  5.5302436447e+01  1.8381770043e+00  5.9943625220e+01  5.0000000000e-01 0. 9.
        4     1     5     0   104     0 -1.2084691636e+02  2.4396745175e+01  1.6477627513e+00  1.2330508299e+02  1.5000000000e+00 0. 9.
       15     1     7     0     0     0  9.5324482314e+00 -2.0323788864e+01 -6.2173012753e+00  2.3360990723e+01  1.7768200000e+00  2.242065e-02 9.
      -16     1     7     0     0     0  1.6690875535e+02 -2.7395948926e+01  1.0902355591e+02  2.0123420776e+02  0.0000000000e+00 0. 9.
#pdf   21   21  5.911250e-02  3.070962e-02  2.569888e+02  1.548430e+00  3.090370e+00
</event>
<event>
    12  9999  1.000000e+00  3.206943e+02  7.930560e-03  1.000090e-01
       21    -1     0     0   101   102  0.0000000000e+00  0.0000000000e+00  7.0416117707e+02  7.0416117707e+02  0.0000000000e+00 0. 9.
       21    -1     0     0   103   101  0.0000000000e+00  0.0000000000e+00 -2.9432027289e+02  2.9432027289e+02  0.0000000000e+00 0. 9.
        6     2     1     2   103     0 -6.8324899160e+01 -2.6191121894e+02 -1.4934263965e+02  3.5398790776e+02  1.7244835856e+02  1.062362e-13 9.
       -6     2     1     2     0   102  6.8324899160e+01  2.6191121894e+02  5.5918354384e+02  6.4449354220e+02  1.7152233608e+02  3.580260e-13 9.
       24     2     3     0     0     0 -1.1378947821e+01 -2.2085933062e+02 -1.5724647352e+02  2.8318106135e+02  8.0973672870e+01  1.349229e-13 9.
        5     1     3     0   103     0 -5.6945951339e+01 -4.1051888326e+01  7.9038338687e+00  7.0806846412e+01  4.8000000000e+00 0. 9.
      -24     2     4     0     0     0 -1.0979484235e+01  1.8140674313e+02  2.7924853962e+02  3.4257169396e+02  7.9665946903e+01  9.794608e-15 9.
       -5     1     4     0     0   102  7.9304383395e+01  8.0504475808e+01  2.7993500422e+02  3.0192184823e+02  4.8000000000e+00 0. 9.
       -3     1     5     0     0   104  4.9438980451e+00 -1.2428440577e+02 -4.0561493840e+01  1.3083019693e+02  5.0000000000e-01 0. 9.
        4     1     5     0   104     0 -1.6322845866e+01 -9.6574924842e+01 -1.1668497968e+02  1.5235086442e+02  1.5000000000e+00 0. 9.
        1     1     7     0   105     0  1.8923714856e+01  1.0146602662e+02  9.8449794448e+01  1.4263916877e+02  3.3000000000e-01 0. 9.
       -2     1     7     0     0   105 -2.9903199091e+01  7.9940716518e+01  1.8079874517e+02  1.9993252519e+02  3.3000000000e-01 0. 9.
#pdf   21   21  1.083325e-01  4.528004e-02  3.204461e+02  6.944304e-01  2.055577e+00
</event>
<event>
    12  9999  1.000000e+00  1.798629e+02  7.878170e-03  1.071148e-01
       21    -1     0     0   101   102  0.0000000000e+00  0.0000000000e+00  8.6684086506e+01  8.6684086506e+01  0.0000000000e+00 0. 9.
       21    -1     0     0   102   103  0.0000000000e+00  0.0000000000e+00 -3.9701686134e+02  3.9701686134e+02  0.0000000000e+00 0. 9.
        6     2     1     2   101     0  7.7989314237e+01 -3.2606798502e+01 -8.9382144009e+01  1.9224782142e+02  1.4773124494e+02  1.541441e-15 9.
       -6     2     1     2     0   103 -7.7989314237e+01  3.2606798502e+01 -2.2095063082e+02  2.9145312642e+02  1.7023574006e+02  1.368739e-13 9.
       24     2     3     0     0     0 -1.7921644542e+00 -1.4137096873e+01 -1.8063686406e+01  8.3548342974e+01  8.0317865296e+01  1.793459e-14 9.
        5     1     3     0   101     0  7.9781478691e+01 -1.8469701629e+01 -7.1318457603e+01  1.0869947845e+02  4.8000000000e+00 0. 9.
      -24     2     4     0     0     0 -8.4135205611e+00 -1.8497296086e+01 -1.7506111035e+02  1.9356897225e+02  8.0060085982e+01  3.368614e-14 9.
       -5     1     4     0     0   103 -6.9575793676e+01  5.1104094588e+01 -4.5889520470e+01  9.7884154174e+01  4.8000000000e+00 0. 9.
       -1     1     5     0     0   104 -1.0672883784e+01 -2.2930543108e+01 -4.6249221933e+01  5.2714511142e+01  3.3000000000e-01 0. 9.
        2     1     5     0   104     0  8.8807193298e+00  8.7934462347e+00  2.8185535527e+01  3.0833831832e+01  3.3000000000e-01 0. 9.
       13     1     7     0     0     0 -1.1868116281e+01 -2.9305234431e+00  4.7034366181e+00  1.3098611826e+01  1.0566000000e-01  5.028176e+05 9.
      -14     1     7     0     0     0  3.4545957204e+00 -1.5566772642e+01 -1.7976454697e+02  1.8047036042e+02  0.0000000000e+00 0. 9.
#pdf   21   21  1.333601e-02  6.107952e-02  1.702059e+02  6.471789e+00  1.536652e+00
</event>
<event>
    12  9999  1.000000e+00  1.983132e+02  7.886968e-03  1.058439e-01
       21    -1     0     0   101   102  0.0000000000e+00  0.0000000000e+00  1.5878769830e+03  1.5878769830e+03  0.0000000000e+00 0. 9.
       21    -1     0     0   102   103  0.0000000000e+00  0.0000000000e+00 -2.6397682275e+01  2.6397682275e+01  0.0000000000e+00 0. 9.
        6     2     1     2   101     0 -9.8541524515e+01 -2.0194441375e+01  9.8085071719e+02  1.0006736653e+03  1.7076711470e+02  7.675059e-15 9.
       -6     2     1     2     0   103  9.8541524515e+01  2.0194441375e+01  5.8062858353e+02  6.1360099999e+02  1.7105083354e+02  2.523225e-15 9.
       24     2     3     0     0     0 -1.1696223833e+02 -6.0720552651e+01  7.5642480473e+02  7.7182498476e+02  7.8537705506e+01  1.153615e-13 9.
        5     1     3     0   101     0  1.8420713810e+01  4.0526111276e+01  2.2442591246e+02  2.2884868052e+02  4.8000000000e+00 0. 9.
      -24     2     4     0     0     0  9.3520058679e+01 -5.1343524651e+00  5.7297547239e+02  5.8624459257e+02  8.1298631018e+01  8.844904e-14 9.
       -5     1     4     0     0   103  5.0214658362e+00  2.5328793840e+01  7.6531111372e+00  2.7356407415e+01  4.8000000000e+00 0. 9.
       -1     1     5     0     0   104 -3.2996195648e+01 -5.6959287623e+01  2.5254560878e+02  2.6098372131e+02  3.3000000000e-01 0. 9.
        2     1     5     0   104     0 -8.3966042677e+01 -3.7612650280e+00  5.0387919595e+02  5.1084126346e+02  3.3000000000e-01 0. 9.
        1     1     7     0   105     0  4.1390785712e+01  2.9313084556e+01  1.4248802474e+02  1.5124615752e+02  3.3000000000e-01 0. 9.
       -2     1     7     0     0   105  5.2129272967e+01 -3.4447437021e+01  4.3048744765e+02  4.3499843506e+02  3.3000000000e-01 0. 9.
#pdf   21   21  2.442888e-01  4.061182e-03  1.981910e+02  1.745024e-01  1.553473e+01
</event>
<event>
    12  9999  1.000000e+00  1.758308e+02  7.876130e-03  1.074144e-01
       21    -1     0     0   101   102  0.0000000000e+00  0.0000000000e+00  3.5362544963e+02  3.5362544963e+02  0.0000000000e+00 0. 9.
       21    -1     0     0   103   101  0.0000000000e+00  0.0000000000e+00 -1.7346935718e+02  1.7346935718e+02  0.0000000000e+00 0. 9.
        6     2     1     2   103     0 -1.8733714847e+01  3.2227814703e+01 -9.5837715097e+01  1.9919776063e+02  1.7060274351e+02  2.000796e-13 9.
       -6     2     1     2     0   102  1.8733714847e+01 -3.2227814703e+01  2.7599380754e+02  3.2789704618e+02  1.7307312611e+02  2.363947e-14 9.
       24     2     3     0     0     0  4.1787061021e+01 -1.7825369722e+01 -2.9777679257e+01  9.6459968565e+01  7.9711436314e+01  3.475821e-14 9.
        5     1     3     0   103     0 -6.0520775868e+01  5.0053184425e+01 -6.6060035840e+01  1.0273779206e+02  4.8000000000e+00 0. 9.
      -24     2     4     0     0     0 -3.4022539165e+01 -6.6634631252e+01  1.5790961002e+02  1.9397927639e+02  8.4230680146e+01  1.116375e-13 9.
       -5     1     4     0     0   102  5.2756254012e+01  3.4406816549e+01  1.1808419752e+02  1.3391776980e+02  4.8000000000e+00 0. 9.
      -11     1     5     0     0     0  3.8116414762e+01  2.2567026292e+01 -3.3776568343e+01  5.5704473063e+01  5.1100000000e-04 0. 9.
       12     1     5     0     0     0  3.6706462590e+00 -4.0392396014e+01  3.9988890861e+00  4.0755495502e+01  0.0000000000e+00 0. 9.
        1     1     7     0   104     0 -1.7296933402e+00 -2.6379635082e+01  1.3491337194e+02  1.3747946689e+02  3.3000000000e-01 0. 9.
       -2     1     7     0     0   104 -3.2292845825e+01 -4.0254996169e+01  2.2996238077e+01  5.6499809502e+01  3.3000000000e-01 0. 9.
#pdf   21   21  5.440392e-02  2.668759e-02  1.746278e+02  1.747666e+00  3.577061e+00
</event>
<event>
    12  9999  1.000000e+00  2.471225e+02  7.906865e-03  1.030893e-01
       21    -1     0     0   101   102  0.0000000000e+00  0.0000000000e+00  4.6772526830e+01  4.6772526830e+01  0.0000000000e+00 0. 9.
       21    -1     0     0   103   101  0.0000000000e+00  0.0000000000e+00 -1.7433361153e+03  1.7433361153e+03  0.0000000000e+00 0. 9.
        6     2     1     2   103     0  1.2284259140e+02  1.2842020390e+02 -1.2954777112e+03  1.3187452166e+03  1.7100992678e+02  2.235957e-13 9.
       -6     2     1     2     0   102 -1.2284259140e+02 -1.2842020390e+02 -4.0108587735e+02  4.7136342561e+02  1.7242838212e+02  1.961591e-14 9.
       24     2     3     0     0     0  1.5181270670e+02  1.0077199625e+02 -1.1786378223e+03  1.1951398340e+03  7.7265862729e+01  4.492552e-14 9.
        5     1     3     0   103     0 -2.8970115293e+01  2.7648207654e+01 -1.1683988889e+02  1.2360538258e+02  4.8000000000e+00 0. 9.
      -24     2     4     0     0     0 -9.4665042795e+01 -1.8072584511e+01 -2.6495893881e+02  2.9381299687e+02  8.2672542205e+01  5.514194e-14 9.
       -5     1     4     0     0   102 -2.8177548609e+01 -1.1034761939e+02 -1.3612693854e+02  1.7755042875e+02  4.8000000000e+00 0. 9.
      -15     1     5     0     0     0  2.8277202937e+01  5.9548393847e+01 -3.2476273175e+02  3.3139040487e+02  1.7768200000e+00  2.032792e-01 9.
       16     1     5     0     0     0  1.2353550376e+02  4.1223602399e+01 -8.5387509052e+02  8.6374942911e+02  0.0000000000e+00 0. 9.
        3     1     7     0   104     0 -7.9250078606e+01 -2.9400651855e+01 -2.6090383109e+02  2.7425541447e+02  5.0000000000e-01 0. 9.
       -2     1     7     0     0   104 -1.5414964189e+01  1.1328067344e+01 -4.0551077223e+00  1.9557582400e+01  3.3000000000e-01 0. 9.
#pdf   21   21  7.195773e-03  2.682056e-01  2.466302e+02  1.043313e+01  1.320817e-01
</event>
<event>
    12  9999  1.000000e+00  2.335738e+02  7.901757e-03  1.037812e-01
       21    -1     0     0   101   102  0.0000000000e+00  0.0000000000e+00  1.4033041865e+03  1.4033041865e+03  0.0000000000e+00 0. 9.
       21    -1     0     0   103   101  0.0000000000e+00  0.0000000000e+00 -4.9618162228e+01  4.9618162228e+01  0.0000000000e+00 0. 9.
        6     2     1     2   103     0  1.0337341531e+02  1.1963810826e+02  1.0146734958e+03  1.0411940906e+03  1.7182401214e+02  2.402674e-14 9.
       -6     2     1     2     0   102 -1.0337341531e+02 -1.1963810826e+02  3.3901252845e+02  4.1172825817e+02  1.7202128993e+02  1.332297e-13 9.
       24     2     3     0     0     0  3.9373113831e-02  2.5689922731e+01  5.5969582987e+02  5.6524041386e+02  7.4681522575e+01  6.187837e-14 9.
        5     1     3     0   103     0  1.0333404220e+02  9.3948185527e+01  4.5497766595e+02  4.7595367669e+02  4.8000000000e+00 0. 9.
      -24     2     4     0     0     0 -9.9832121868e+00  6.6897148724e-01  1.1763109947e+02  1.4297502456e+02  8.0651534629e+01  3.242791e-13 9.
       -5     1     4     0     0   102 -9.3390203127e+01 -1.2030707975e+02  2.2138142898e+02  2.6875323361e+02  4.8000000000e+00 0. 9.
      -11     1     5     0     0     0 -1.5674456272e+01  4.3732494974e+01  2.2811587549e+02  2.3279835125e+02  5.1100000000e-04 0. 9.
       12     1     5     0     0     0  1.5713829385e+01 -1.8042572243e+01  3.3157995438e+02  3.3244206261e+02  0.0000000000e+00 0. 9.
       15     1     7     0     0     0 -9.5347704065e+00 -2.9598165774e+01  1.0610890339e+02  1.1058580258e+02  1.7768200000e+00  3.164305e-01 9.
      -16     1     7     0     0     0 -4.4844178033e-01  3.0267137262e+01  1.1522196072e+01  3.2389221978e+01  0.0000000000e+00 0. 9.
#pdf   21   21  2.158930e-01  7.633563e-03  2.335012e+02  2.221108e-01  9.975792e+00
</event>
<event>
    12  9999  1.000000e+00  1.737340e+02  7.875052e-03  1.075735e-01
       21    -1     0     0   101   102  0.0000000000e+00  0.0000000000e+00  2.7949895678e+02  2.7949895678e+02  0.0000000000e+00 0. 9.
       21    -1     0     0   102   103  0.0000000000e+00  0.0000000000e+00 -5.3998806655e+02  5.3998806655e+02  0.0000000000e+00 0. 9.
        6     2     1     2   101     0 -2.9925677478e+01 -3.6302402516e+00  2.3612731631e+02  2.9361023031e+02  1.7187825057e+02  6.526840e-14 9.
       -6     2     1     2     0   103  2.9925677478e+01  3.6302402516e+00 -4.9661642608e+02  5.2587679302e+02  1.7032264078e+02  1.784935e-14 9.
       24     2     3     0     0     0 -8.0871435868e+01  1.9611466339e+01  1.4093563357e+02  1.8306547156e+02  8.2008019841e+01  7.856312e-14 9.
        5     1     3     0   101     0  5.0945758390e+01 -2.3241706591e+01  9.5191682745e+01  1.1054475875e+02  4.8000000000e+00 0. 9.
      -24     2     4     0     0     0  8.3374173473e+00  1.0920758216e+01 -9.9774950676e+01  1.2835270415e+02  7.9565070177e+01  1.264354e-13 9.
       -5     1     4     0     0   103  2.1588260131e+01 -7.2905179643e+00 -3.9684147541e+02  3.9752408887e+02  4.8000000000e+00 0. 9.
       -1     1     5     0     0   104 -4.5595975791e+01 -2.6636759870e+01  9.5991156366e+01  1.0955784310e+02  3.3000000000e-01 0. 9.
        2     1     5     0   104     0 -3.5275460076e+01  4.6248226209e+01  4.4944477202e+01  7.3507628461e+01  3.3000000000e-01 0. 9.
        3     1     7     0   105     0  2.0985249971e+01 -2.8428988886e+01 -6.6353904341e+01  7.5177647919e+01  5.0000000000e-01 0. 9.
       -4     1     7     0     0   105 -1.2647832624e+01  3.9349747102e+01 -3.3421046336e+01  5.3175056231e+01  1.5000000000e+00 0. 9.
#pdf   21   21  4.299984e-02  8.307509e-02  1.729697e+02  2.249071e+00  1.059107e+00
</event>
<event>
    12  9999  1.000000e+00  1.726993e+02  7.874514e-03  1.076530e-01
       21    -1     0     0   101   102  0.0000000000e+00  0.0000000000e+00  4.9226715177e+01  4.9226715177e+01  0.0000000000e+00 0. 9.
       21    -1     0     0   103   101  0.0000000000e+00  0.0000000000e+00 -7.0249102010e+02  7.0249102010e+02  0.0000000000e+00 0. 9.
        6     2     1     2   103     0  1.4933796216e+01 -8.1859233650e+00 -4.6465138585e+02  4.9541809371e+02  1.7102090396e+02  3.183919e-13 9.
       -6     2     1     2     0   102 -1.4933796216e+01  8.1859233650e+00 -1.8861291907e+02  2.5629964157e+02  1.7269813379e+02  1.853660e-13 9.
       24     2     3     0     0     0  2.0322656887e+01 -5.9371692094e+01 -1.9742654663e+02  2.2323951733e+02  8.3190339476e+01  5.132079e-14 9.
        5     1     3     0   103     0 -5.3888606712e+00  5.1185768729e+01 -2.6722483922e+02  2.7217857638e+02  4.8000000000e+00 0. 9.
      -24     2     4     0     0     0  3.6297268628e+01  5.3524331464e+01 -1.2421570845e+02  1.6222395932e+02  8.1882385062e+01  2.850802e-13 9.
       -5     1     4     0     0   102 -5.1231064844e+01 -4.5338408099e+01 -6.4397210628e+01  9.4075682249e+01  4.8000000000e+00 0. 9.
       -3     1     5     0     0   104  1.3335449474e+01  2.6029893118e-01  3.2760364485e+00  1.3743521493e+01  5.0000000000e-01 0. 9.
        4     1     5     0   104     0  6.9872074131e+00 -5.9631991025e+01 -2.0070258307e+02  2.0949599584e+02  1.5000000000e+00 0. 9.
        3     1     7     0   105     0  4.6925161151e+01  2.5545219800e+01 -1.2076759216e+02  1.3205904104e+02  5.0000000000e-01 0. 9.
       -4     1     7     0     0   105 -1.0627892522e+01  2.7979111664e+01 -3.4481162877e+00  3.0164918282e+01  1.5000000000e+00 0. 9.
#pdf   21   21  7.573341e-03  1.080755e-01  1.718667e+02  9.966505e+00  7.461799e-01
</event>
<event>
    12  9999  1.000000e+00  1.957352e+02  7.885788e-03  1.060124e-01
       21    -1     0     0   101   102  0.0000000000e+00  0.0000000000e+00  3.6182810535e+02  3.6182810535e+02  0.0000000000e+00 0. 9.
       21    -1     0     0   103   101  0.0000000000e+00  0.0000000000e+00 -1.5243458095e+02  1.5243458095e+02  0.0000000000e+00 0. 9.
        6     2     1     2   103     0 -5.6166907973e+01 -7.6027975014e+01 -3.7363927376e+01  1.9935228429e+02  1.7149430209e+02  2.759383e-13 9.
       -6     2     1     2     0   102  5.6166907973e+01  7.6027975014e+01  2.4675745177e+02  3.1491040201e+02  1.7130191696e+02  9.202188e-15 9.
       24     2     3     0     0     0 -2.9749047826e+01 -7.4829016775e+01 -8.6878523787e+01  1.4301334489e+02  8.0128342817e+01  1.752207e-13 9.
        5     1     3     0   103     0 -2.6417860147e+01 -1.1989582395e+00  4.9514596411e+01  5.6338939406e+01  4.8000000000e+00 0. 9.
      -24     2     4     0     0     0  5.9195700805e+01 -2.0395220714e+01  1.3858432441e+02  1.6988946648e+02  7.5741136942e+01  7.218180e-14 9.
       -5     1     4     0     0   102 -3.0287928318e+00  9.6423195729e+01  1.0817312736e+02  1.4502093553e+02  4.8000000000e+00 0. 9.
      -13     1     5     0     0     0  2.5415401670e+00 -4.4028877087e+01  1.3702998994e+00  4.4123580202e+01  1.0566000000e-01  9.361671e+05 9.
       14     1     5     0     0     0 -3.2290587993e+01 -3.0800139688e+01 -8.8248823686e+01  9.8889764686e+01  0.0000000000e+00 0. 9.
        1     1     7     0   104     0  3.1475448509e+00 -3.5392216681e+01  2.8890414582e+01  4.5796080562e+01  3.3000000000e-01 0. 9.
       -2     1     7     0     0   104  5.6048155954e+01  1.4996995966e+01  1.0969390983e+02  1.2409338592e+02  3.3000000000e-01 0. 9.
#pdf   21   21  5.566586e-02  2.345147e-02  1.956510e+02  1.690904e+00  4.010319e+00
</event>
<event>
    12  9999  1.000000e+00  2.040589e+02  7.889545e-03  1.054780e-01
       21    -1     0     0   101   102  0.0000000000e+00  0.0000000000e+00  6.7130943188e+02  6.7130943188e+02  0.0000000000e+00 0. 9.
       21    -1     0     0   102   103  0.0000000000e+00  0.0000000000e+00 -9.3280645440e+01  9.3280645440e+01  0.0000000000e+00 0. 9.
        6     2     1     2   101     0 -8.1485279044e+01 -7.5848873673e+01  5.1076728721e+02  5.5020784305e+02  1.7161744238e+02  1.992638e-14 9.
       -6     2     1     2     0   103  8.1485279044e+01  7.5848873673e+01  6.7261499236e+01  2.1438223428e+02  1.7041927930e+02  1.123993e-14 9.
       24     2     3     0     0     0 -8.4991177061e+01  8.2612902991e+00  3.3624949040e+02  3.5638753346e+02  8.1588020667e+01  2.084134e-15 9.
        5     1     3     0   101     0  3.5058980176e+00 -8.4110163972e+01  1.7451779681e+02  1.9382030958e+02  4.8000000000e+00 0. 9.
      -24     2     4     0     0     0  8.4757252662e+01  1.1458128402e+02  5.2200060081e+01  1.7242043770e+02  8.1800357811e+01  4.716359e-15 9.
       -5     1     4     0     0   103 -3.2719736179e+00 -3.8732410347e+01  1.5061439154e+01  4.1961796578e+01  4.8000000000e+00 0. 9.
       -1     1     5     0     0   104  1.4582176937e+01  5.3162162589e+00  2.3574512278e+01  2.8227089270e+01  3.3000000000e-01 0. 9.
        2     1     5     0   104     0 -9.9573353998e+01  2.9450740402e+00  3.1267497812e+02  3.2816044419e+02  3.3000000000e-01 0. 9.
       15     1     7     0     0     0  1.0120831385e+02  9.9955448885e+01  4.6754714027e+01  1.4974436526e+02  1.7768200000e+00  2.803026e-01 9.
      -16     1     7     0     0     0 -1.6451061189e+01  1.4625835135e+01  5.4453460537e+00  2.2676072440e+01  0.0000000000e+00 0. 9.
#pdf   21   21  1.032784e-01  1.435087e-02  2.035574e+02  7.806976e-01  6.099722e+00
</event>
<event>
    12  9999  1.000000e+00  1.874967e+02  7.881913e-03  1.065701e-01
       21    -1     0     0   101   102  0.0000000000e+00  0.0000000000e+00  5.5819949992e+02  5.5819949992e+02  0.0000000000e+00 0. 9.
       21    -1     0     0   103   101  0.0000000000e+00  0.0000000000e+00 -3.8029719380e+02  3.8029719380e+02  0.0000000000e+00 0. 9.
        6     2     1     2   103     0  3.2133201731e+01 -6.9592189692e+01 -3.3967442705e+02  3.8804974506e+02  1.7125499328e+02  3.659453e-14 9.
       -6     2     1     2     0   102 -3.2133201731e+01  6.9592189692e+01  5.1757673318e+02  5.5044694866e+02  1.7096945062e+02  1.697899e-13 9.
       24     2     3     0     0     0  2.2691228843e+01 -1.0660336529e+02 -3.1354641886e+02  3.4152350747e+02  8.0298069829e+01  5.495199e-15 9.
        5     1     3     0   103     0  9.4419728879e+00  3.7011175601e+01 -2.6128008192e+01  4.6526237581e+01  4.8000000000e+00 0. 9.
      -24     2     4     0     0     0 -5.0146666749e+01 -1.0402300241e+00  2.0992613042e+02  2.3424233609e+02  9.1020445605e+01  5.992941e-14 9.
       -5     1     4     0     0   102  1.8013465018e+01  7.0632419716e+01  3.0765060276e+02  3.1620461257e+02  4.8000000000e+00 0. 9.
       -3     1     5     0     0   104 -4.2183630792e+00 -1.0754985619e+02 -2.6430944288e+02  2.8538482396e+02  5.0000000000e-01 0. 9.
        4     1     5     0   104     0  2.6909591922e+01  9.4649089657e-01 -4.9236975984e+01  5.6138683512e+01  1.5000000000e+00 0. 9.
        3     1     7     0   105     0 -1.1774500441e+01  2.7590880907e+01  1.5049804051e+01  3.3565490788e+01  5.0000000000e-01 0. 9.
       -4     1     7     0     0   105 -3.8372166308e+01 -2.8631110931e+01  1.9487632637e+02  2.0067684530e+02  1.5000000000e+00 0. 9.
#pdf   21   21  8.587685e-02  5.850726e-02  1.873664e+02  1.007758e+00  1.603312e+00
</event>
<event>
    12  9999  1.000000e+00  2.171671e+02  7.895169e-03  1.046891e-01
       21    -1     0     0   101   102  0.0000000000e+00  0.0000000000e+00  1.0516179788e+03  1.0516179788e+03  0.0000000000e+00 0. 9.
       21    -1     0     0   102   103  0.0000000000e+00  0.0000000000e+00 -5.2740094800e+01  5.2740094800e+01  0.0000000000e+00 0. 9.
        6     2     1     2   101     0  1.0803571999e+02 -8.1795368767e+01  7.1629925276e+02  7.4898642151e+02  1.7185412701e+02  3.514032e-14 9.
       -6     2     1     2     0   103 -1.0803571999e+02  8.1795368767e+01  2.8257863120e+02  3.5537165204e+02  1.6755933014e+02  3.121799e-15 9.
       24     2     3     0     0     0  1.2784496618e+01  1.1178033265e+01  3.3825160017e+02  3.4816237450e+02  8.0712466316e+01  2.973670e-15 9.
        5     1     3     0   101     0  9.5251223373e+01 -9.2973402031e+01  3.7804765258e+02  4.0082404701e+02  4.8000000000e+00 0. 9.
      -24     2     4     0     0     0 -1.3339156034e+02  3.2376498174e+01  2.2886004789e+02  2.7795156677e+02  7.7708467658e+01  9.467924e-14 9.
       -5     1     4     0     0   103  2.5355840350e+01  4.9418870593e+01  5.3718583312e+01  7.7420085273e+01  4.8000000000e+00 0. 9.
       -3     1     5     0     0   104 -1.6727594531e+01 -2.0676119937e+01  2.2974247934e+02  2.3127726038e+02  5.0000000000e-01 0. 9.
        4     1     5     0   104     0  2.9512091149e+01  3.1854153202e+01  1.0850912083e+02  1.1688511412e+02  1.5000000000e+00 0. 9.
        1     1     7     0   105     0 -6.2651056948e+01  5.4800373909e+01  1.1259266147e+02  1.4001947091e+02  3.3000000000e-01 0. 9.
       -2     1     7     0     0   105 -7.0740503393e+01 -2.2423875735e+01  1.1626738642e+02  1.3793209586e+02  3.3000000000e-01 0. 9.
#pdf   21   21  1.617874e-01  8.113861e-03  2.154955e+02  3.887246e-01  9.519707e+00
</event>
<event>
    12  9999  1.000000e+00  2.922429e+02  7.922097e-03  1.010854e-01
       21    -1     0     0   101   102  0.0000000000e+00  0.0000000000e+00  4.2782762623e+02  4.2782762623e+02  0.0000000000e+00 0. 9.
       21    -1     0     0   102   103  0.0000000000e+00  0.0000000000e+00 -2.0050741829e+02  2.0050741829e+02  0.0000000000e+00 0. 9.
        6     2     1     2   101     0 -2.2237840799e+02  8.1923374286e+01  1.3468195057e+02  3.2227794510e+02  1.7193094689e+02  3.884085e-13 9.
       -6     2     1     2     0   103  2.2237840799e+02 -8.1923374286e+01  9.2638257373e+01  3.0605709942e+02  1.7007500046e+02  3.598316e-14 9.
       24     2     3     0     0     0 -2.0066846310e+02  1.1505425697e+02  8.7126209716e+01  2.6020085124e+02  8.1290789384e+01  2.705873e-16 9.
        5     1     3     0   101     0 -2.1709944887e+01 -3.3130882681e+01  4.7555740851e+01  6.2077093860e+01  4.8000000000e+00 0. 9.
      -24     2     4     0     0     0  1.3576572157e+02 -7.8105976739e+00  7.0991737391e-01  1.5953638143e+02  8.3414725481e+01  1.216472e-13 9.
       -5     1     4     0     0   103  8.6612686416e+01 -7.4112776612e+01  9.1928339999e+01  1.4652071799e+02  4.8000000000e+00 0. 9.
       -1     1     5     0     0   104 -7.1366365867e+00  3.3997517948e+01  1.9003835387e+01  3.9598200310e+01  3.3000000000e-01 0. 9.
        2     1     5     0   104     0 -1.9353182652e+02  8.1056739019e+01  6.8122374329e+01  2.2060265093e+02  3.3000000000e-01 0. 9.
       11     1     7     0     0     0  1.6530558197e+01 -8.1976680473e+00 -3.1071930199e+01  3.6137597627e+01  5.1100000000e-04 0. 9.
      -12     1     7     0     0     0  1.1923516338e+02  3.8707037337e-01  3.1781847573e+01  1.2339878380e+02  0.0000000000e+00 0. 9.
#pdf   21   21  6.581963e-02  3.084730e-02  2.917004e+02  1.350876e+00  3.061007e+00
</event>
<event>
    12  9999  1.000000e+00  1.917662e+02  7.883942e-03  1.062774e-01
       21    -1     0     0   101   102  0.0000000000e+00  0.0000000000e+00  1.5422284619e+02  1.5422284619e+02  0.0000000000e+00 0. 9.
       21    -1     0     0   102   103  0.0000000000e+00  0.0000000000e+00 -2.7783461012e+02  2.7783461012e+02  0.0000000000e+00 0. 9.
        6     2     1     2   101     0  2.2684361162e+01  1.0515039041e+02 -1.4505619149e+02  2.4811672851e+02  1.7014531270e+02  4.468021e-13 9.
       -6     2     1     2     0   103 -2.2684361162e+01 -1.0515039041e+02  2.1444427555e+01  1.8394072780e+02  1.4765887385e+02  1.142923e-13 9.
       24     2     3     0     0     0  7.4418647228e+01  9.9828631994e+01 -1.0141483633e+02  1.8005524640e+02  8.1431148253e+01  7.933566e-14 9.
        5     1     3     0   101     0 -5.1734286065e+01  5.3217584135e+00 -4.3641355159e+01  6.8061482113e+01  4.8000000000e+00 0. 9.
      -24     2     4     0     0     0 -1.0281138498e+01 -7.2404897587e+01  6.6276470234e+01  1.2685255667e+02  7.9692092602e+01  7.733419e-14 9.
       -5     1     4     0     0   103 -1.2403222664e+01 -3.2745492821e+01 -4.4832042679e+01  5.7088171133e+01  4.8000000000e+00 0. 9.
      -15     1     5     0     0     0  3.9870889554e+01  1.4144561201e+01 -7.1225227889e+01  8.2861007854e+01  1.7768200000e+00  2.457342e-01 9.
       16     1     5     0     0     0  3.4547757674e+01  8.5684070794e+01 -3.0189608442e+01  9.7194238543e+01  0.0000000000e+00 0. 9.
        1     1     7     0   104     0 -1.9969131460e+00  1.2349025565e+01 -7.1475843629e+00  1.4411209413e+01  3.3000000000e-01 0. 9.
       -2     1     7     0     0   104 -8.2842253520e+00 -8.4753923152e+01  7.3424054597e+01  1.1244134726e+02  3.3000000000e-01 0. 9.
#pdf   21   21  2.372659e-02  4.274379e-02  1.826864e+02  3.975192e+00  2.256707e+00
</event>
<event>
    12  9999  1.000000e+00  3.151001e+02  7.928956e-03  1.002111e-01
       21    -1     0     0   101   102  0.0000000000e+00  0.0000000000e+00  1.3694357476e+02  1.3694357476e+02  0.0000000000e+00 0. 9.
       21    -1     0     0   102   103  0.0000000000e+00  0.0000000000e+00 -7.5831305865e+02  7.5831305865e+02  0.0000000000e+00 0. 9.
        6     2     1     2   101     0 -1.4903651332e+02  2.1830163217e+02 -2.1705611981e+02  3.8275657981e+02  1.7181896092e+02  2.410809e-13 9.
       -6     2     1     2     0   103  1.4903651332e+02 -2.1830163217e+02 -4.0431336408e+02  5.1250005360e+02  1.7122944739e+02  5.272171e-13 9.
       24     2     3     0     0     0 -1.2140155532e+02  1.9472987530e+02 -2.3758918463e+02  3.4075699200e+02  8.3717650293e+01  4.570696e-14 9.
        5     1     3     0   101     0 -2.7634957993e+01  2.3571756866e+01  2.0533064825e+01  4.1999587809e+01  4.8000000000e+00 0. 9.
      -24     2     4     0     0     0  6.1064587725e+01 -2.6338149451e+01 -1.6369629784e+02  1.9233033149e+02  7.5972998448e+01  1.398599e-13 9.
       -5     1     4     0     0   103  8.7971925590e+01 -1.9196348272e+02 -2.4061706624e+02  3.2016972211e+02  4.8000000000e+00 0. 9.
      -15     1     5     0     0     0 -4.8770034154e+01  9.3025422450e+01 -1.6680355536e+02  1.9712642802e+02  1.7768200000e+00  6.184830e-02 9.
       16     1     5     0     0     0 -7.2631521169e+01  1.0170445286e+02 -7.0785629274e+01  1.4363056398e+02  0.0000000000e+00 0. 9.
        3     1     7     0   104     0  3.4764524001e+01 -5.1418388882e+01 -1.2282741838e+02  1.3761993878e+02  5.0000000000e-01 0. 9.
       -4     1     7     0     0   104  2.6300063725e+01  2.5080239431e+01 -4.0868879462e+01  5.4710392709e+01  1.5000000000e+00 0. 9.
#pdf   21   21  2.106824e-02  1.166635e-01  3.149397e+02  4.360521e+00  6.238963e-01
</event>
<event>
    12  9999  1.000000e+00  2.894615e+02  7.921227e-03  1.011976e-01
       21    -1     0     0   101   102  0.0000000000e+00  0.0000000000e+00  1.3610778159e+02  1.3610778159e+02  0.0000000000e+00 0. 9.
       21    -1     0     0   103   101  0.0000000000e+00  0.0000000000e+00 -6.9976977798e+02  6.9976977798e+02  0.0000000000e+00 0. 9.
        6     2     1     2   103     0  1.8380518171e+02 -1.4383384942e+02 -4.2640940600e+02  5.1513508648e+02  1.7048945637e+02  1.777648e-13 9.
       -6     2     1     2     0   102 -1.8380518171e+02  1.4383384942e+02 -1.3725259039e+02  3.2074247310e+02  1.7194458241e+02  2.811037e-13 9.
       24     2     3     0     0     0  1.2362937384e+02 -3.4476383519e+01 -3.0735658574e+02  3.4257553962e+02  8.0106719136e+01  1.164613e-13 9.
        5     1     3     0   103     0  6.0175807864e+01 -1.0935746590e+02 -1.1905282026e+02  1.7255954686e+02  4.8000000000e+00 0. 9.
      -24     2     4     0     0     0 -6.6262586896e+01  1.7582968641e+01 -1.1001278599e+01  1.0692484000e+02  8.1314218135e+01  1.531522e-13 9.
       -5     1     4     0     0   102 -1.1754259481e+02  1.2625088078e+02 -1.2625131179e+02  2.1381763309e+02  4.8000000000e+00 0. 9.
      -13     1     5     0     0     0  4.7334232697e+01  2.4782501192e+01 -8.9048915758e+01  1.0384807419e+02  1.0566000000e-01  3.424991e+05 9.
       14     1     5     0     0     0  7.6295141145e+01 -5.9258884711e+01 -2.1830766998e+02  2.3872746544e+02  0.0000000000e+00 0. 9.
       11     1     7     0     0     0 -6.5263831275e+01 -1.9981117018e+01 -1.9945713701e+00  6.8283167949e+01  5.1100000000e-04 0. 9.
      -12     1     7     0     0     0 -9.9875562100e-01  3.7564085658e+01 -9.0067072288e+00  3.8641672055e+01  0.0000000000e+00 0. 9.
#pdf   21   21  2.093966e-02  1.076569e-01  2.890314e+02  4.393810e+00  7.086195e-01
</event>
<event>
    12  9999  1.000000e+00  1.988904e+02  7.887231e-03  1.058066e-01
       21    -1     0     0   101   102  0.0000000000e+00  0.0000000000e+00  3.2475676669e+02  3.2475676669e+02  0.0000000000e+00 0. 9.
       21    -1     0     0   102   103  0.0000000000e+00  0.0000000000e+00 -1.4113030219e+02  1.4113030219e+02  0.0000000000e+00 0. 9.
        6     2     1     2   101     0 -9.3240732250e+01 -3.7052463852e+01  1.7857189894e+02  2.6837886676e+02  1.7341445674e+02  1.865882e-14 9.
       -6     2     1     2     0   103  9.3240732250e+01  3.7052463852e+01  5.0545655545e+00  1.9750820211e+02  1.7005064551e+02  6.771577e-14 9.
       24     2     3     0     0     0 -1.0499480631e+02  2.3783598143e+01  9.7527965525e+01  1.6624981194e+02  8.0856211991e+01  3.325415e-13 9.
        5     1     3     0   101     0  1.1754074056e+01 -6.0836061995e+01  8.1043933418e+01  1.0212905483e+02  4.8000000000e+00 0. 9.
      -24     2     4     0     0     0  1.2818937943e+02  1.0852802635e+01  1.1597449886e+01  1.5308208903e+02  8.2154274472e+01  1.185517e-14 9.
       -5     1     4     0     0   103 -3.4948647183e+01  2.6199661217e+01 -6.5428843312e+00  4.4426113077e+01  4.8000000000e+00 0. 9.
      -15     1     5     0     0     0 -1.1416753932e+02  2.5773098822e+01  1.0253490275e+02  1.5561183448e+02  1.7768200000e+00  1.681895e-01 9.
       16     1     5     0     0     0  9.1727330180e+00 -1.9895006787e+00 -5.0069372279e+00  1.0637977457e+01  0.0000000000e+00 0. 9.
        3     1     7     0   104     0  8.5577094357e+01 -1.3436465273e+00  4.5803400690e+01  9.7074435251e+01  5.0000000000e-01 0. 9.
       -4     1     7     0     0   104  4.2612285075e+01  1.2196449162e+01 -3.4205950804e+01  5.6007653780e+01  1.5000000000e+00 0. 9.
#pdf   21   21  4.996258e-02  2.171235e-02  1.974435e+02  1.903888e+00  4.294190e+00
</event>
<event>
    12  9999  1.000000e+00  2.553406e+02  7.909832e-03  1.026921e-01
       21    -1     0     0   101   102  0.0000000000e+00  0.0000000000e+00  4.5660701541e+02  4.5660701541e+02  0.0000000000e+00 0. 9.
       21    -1     0     0   103   101  0.0000000000e+00  0.0000000000e+00 -3.1596597765e+02  3.1596597765e+02  0.0000000000e+00 0. 9.
        6     2     1     2   103     0 -1.8710787964e+02 -3.3465006134e+01 -2.1563381489e+02  3.3435883730e+02  1.7078824520e+02  3.136805e-13 9.
       -6     2     1     2     0   102  1.8710787964e+02  3.3465006134e+01  3.5627485265e+02  4.3821415575e+02  1.7020755098e+02  2.684296e-14 9.
       24     2     3     0     0     0 -8.9141870528e+01 -6.0431185706e+01 -1.8521855881e+02  2.2818614032e+02  7.8516232849e+01  6.412308e-14 9.
        5     1     3     0   103     0 -9.7966009112e+01  2.6966179573e+01 -3.0415256086e+01  1.0617269698e+02  4.8000000000e+00 0. 9.
      -24     2     4     0     0     0  1.4690104748e+02 -2.6944099717e+01  3.0589248269e+02  3.4974228098e+02  8.0271725286e+01  4.272464e-14 9.
       -5     1     4     0     0   102  4.0206832163e+01  6.0409105851e+01  5.0382369956e+01  8.8471874766e+01  4.8000000000e+00 0. 9.
       -1     1     5     0     0   104 -3.9213347512e+01 -7.0224079289e+01 -9.3803526057e+01  1.2356503687e+02  3.3000000000e-01 0. 9.
        2     1     5     0   104     0 -4.9928523016e+01  9.7928935826e+00 -9.1415032749e+01  1.0462110345e+02  3.3000000000e-01 0. 9.
        3     1     7     0   105     0  8.9067965423e+01  1.5638389579e+01  1.1858030176e+02  1.4912813168e+02  5.0000000000e-01 0. 9.
       -4     1     7     0     0   105  5.7833082054e+01 -4.2582489297e+01  1.8731218093e+02  2.0061414930e+02  1.5000000000e+00 0. 9.
#pdf   21   21  7.024723e-02  4.861015e-02  2.551468e+02  1.261773e+00  1.929734e+00
</event>
<event>
    12  9999  1.000000e+00  2.666734e+02  7.913773e-03  1.021696e-01
       21    -1     0     0   101   102  0.0000000000e+00  0.0000000000e+00  3.6119941600e+02  3.6119941600e+02  0.0000000000e+00 0. 9.
       21    -1     0     0   102   103  0.0000000000e+00  0.0000000000e+00 -3.0066222317e+02  3.0066222317e+02  0.0000000000e+00 0. 9.
        6     2     1     2   101     0  3.1316718990e+01 -2.0206815455e+02  2.2465977188e+02  3.4836623076e+02  1.7051317152e+02  3.676126e-13 9.
       -6     2     1     2     0   103 -3.1316718990e+01  2.0206815455e+02 -1.6412257904e+02  3.1349540841e+02  1.7184549506e+02  8.040614e-14 9.
       24     2     3     0     0     0  2.8501855275e+00 -2.1138046625e+02  2.2349314567e+02  3.1801061030e+02  8.0571316444e+01  7.389994e-14 9.
        5     1     3     0   101     0  2.8466533462e+01  9.3123117003e+00  1.1666262101e+00  3.0355620456e+01  4.8000000000e+00 0. 9.
      -24     2     4     0     0     0 -7.8948744661e+01  1.5536225224e+02 -1.5268612796e+02  2.4564201061e+02  8.1588050592e+01  1.058746e-13 9.
       -5     1     4     0     0   103  4.7632025671e+01  4.6705902311e+01 -1.1436451086e+01  6.7853397805e+01  4.8000000000e+00 0. 9.
       -3     1     5     0     0   104 -3.6260310049e+01 -1.0983638835e+02  9.5429373667e+01  1.4995285142e+02  5.0000000000e-01 0. 9.
        4     1     5     0   104     0  3.9110495577e+01 -1.0154407790e+02  1.2806377201e+02  1.6805775889e+02  1.5000000000e+00 0. 9.
        1     1     7     0   105     0 -8.5458763495e+00  7.6554712336e+00  9.7636466729e+00  1.5069039078e+01  3.3000000000e-01 0. 9.
       -2     1     7     0     0   105 -7.0402868312e+01  1.4770678101e+02 -1.6244977463e+02  2.3057297153e+02  3.3000000000e-01 0. 9.
#pdf   21   21  5.556914e-02  4.625573e-02  2.662462e+02  1.658004e+00  2.031151e+00
</event>
<event>
    12  9999  1.000000e+00  1.825388e+02  7.879500e-03  1.069207e-01
       -2    -1     0     0     0   101  0.0000000000e+00  0.0000000000e+00  4.1423192856e+02  4.1423192856e+02  0.0000000000e+00 0. 9.
        2    -1     0     0   102     0  0.0000000000e+00  0.0000000000e+00 -1.2802160216e+02  1.2802160216e+02  0.0000000000e+00 0. 9.
       -6     2     1     2     0   101  3.3386343521e+01  4.0485077029e+01 -2.3645833238e+01  1.8104623338e+02  1.7165349922e+02  4.248236e-14 9.
        6     2     1     2   102     0 -3.3386343521e+01 -4.0485077029e+01  3.0985615964e+02  3.6120729735e+02  1.7806229976e+02  2.999800e-13 9.
      -24     2     3     0     0     0  6.3788044266e+01 -2.6481341937e+01 -4.9223706745e+00  1.0500431910e+02  7.8939858334e+01  5.587017e-14 9.
       -5     1     3     0     0   101 -3.0401700745e+01  6.6966418966e+01 -1.8723462564e+01  7.6041914283e+01  4.8000000000e+00 0. 9.
       24     2     4     0     0     0  3.7918126896e+01 -3.4687414696e+01  2.5299886309e+02  2.6969919628e+02  7.8027114932e+01  2.767906e-13 9.
        5     1     4     0   102     0 -7.1304470416e+01 -5.7976623333e+00  5.6857296545e+01  9.1508101064e+01  4.8000000000e+00 0. 9.
        3     1     5     0   103     0  3.9295878260e+01 -3.0951206525e+00 -4.0044730830e+01  5.6192315198e+01  5.0000000000e-01 0. 9.
       -4     1     5     0     0   103  2.4492166006e+01 -2.3386221285e+01  3.5122360156e+01  4.8812003899e+01  1.5000000000e+00 0. 9.
       -3     1     7     0     0   104  3.5149885849e+01 -4.8984230628e+00  3.5668246027e+01  5.0318811575e+01  5.0000000000e-01 0. 9.
        2     1     7     0   104     0  2.7682410467e+00 -2.9788991633e+01  2.1733061706e+02  2.1938038471e+02  3.3000000000e-01 0. 9.
#pdf   -2    2  6.372799e-02  1.969563e-02  1.794954e+02  1.210909e-01  6.793455e-01
</event>
<event>
    12  9999  1.000000e+00  2.512647e+02  7.908372e-03  1.028871e-01
       21    -1     0     0   101   102  0.0000000000e+00  0.0000000000e+00  2.5420104313e+02  2.5420104313e+02  0.0000000000e+00 0. 9.
       21    -1     0     0   103   101  0.0000000000e+00  0.0000000000e+00 -3.0625501668e+02  3.0625501668e+02  0.0000000000e+00 0. 9.
        6     2     1     2   103     0  9.2433932569e+01  1.6000312528e+02 -1.4789924136e+02  2.9192474390e+02  1.7088252841e+02  2.691524e-13 9.
       -6     2     1     2     0   102 -9.2433932569e+01 -1.6000312528e+02  9.5845267813e+01  2.6853131591e+02  1.6963997251e+02  4.987689e-14 9.
       24     2     3     0     0     0  1.0107172661e+02  4.5195494389e+01 -7.6806123120e+01  1.5652653469e+02  7.9644515689e+01  5.315463e-14 9.
        5     1     3     0   103     0 -8.6377940412e+00  1.1480763089e+02 -7.1093118245e+01  1.3539820922e+02  4.8000000000e+00 0. 9.
      -24     2     4     0     0     0  1.7325746508e+00 -4.1829225902e+01  1.1045980672e+01  9.5192455076e+01  8.4775608873e+01  5.275519e-14 9.
       -5     1     4     0     0   102 -9.4166507220e+01 -1.1817389938e+02  8.4799287140e+01  1.7333886084e+02  4.8000000000e+00 0. 9.
      -15     1     5     0     0     0 -5.6961436695e+00  6.9944341194e+00  1.0100271612e+01  1.3657991701e+01  1.7768200000e+00  1.565869e-01 9.
       16     1     5     0     0     0  1.0676787028e+02  3.8201060270e+01 -8.6906394731e+01  1.4286854299e+02  0.0000000000e+00 0. 9.
        1     1     7     0   104     0 -1.3327481262e+01 -4.9415807336e+01  3.7756926704e+01  6.3602186956e+01  3.3000000000e-01 0. 9.
       -2     1     7     0     0   104  1.5060055913e+01  7.5865814337e+00 -2.6710946032e+01  3.1590268119e+01  3.3000000000e-01 0. 9.
#pdf   21   21  3.910785e-02  4.711616e-02  2.508441e+02  2.431754e+00  1.998373e+00
</event>
<event>
    12  9999  1.000000e+00  2.110528e+02  7.892588e-03  1.050495e-01
       21    -1     0     0   101   102  0.0000000000e+00  0.0000000000e+00  1.0533726617e+03  1.0533726617e+03  0.0000000000e+00 0. 9.
       21    -1     0     0   103   101  0.0000000000e+00  0.0000000000e+00 -5.0535085287e+01  5.0535085287e+01  0.0000000000e+00 0. 9.
        6     2     1     2   103     0  1.2289308351e+02  3.4605817988e+01  2.7518062201e+02  3.4579820017e+02  1.6598719198e+02  4.319019e-14 9.
       -6     2     1     2     0   102 -1.2289308351e+02 -3.4605817988e+01  7.2765695439e+02  7.5810954679e+02  1.7013279830e+02  3.634082e-14 9.
       24     2     3     0     0     0  8.2249596564e+01  6.7775798561e+01  2.5872337933e+02  2.9060742668e+02  7.8462312126e+01  1.135924e-14 9.
        5     1     3     0   103     0  4.0643486946e+01 -3.3169980573e+01  1.6457242678e+01  5.5190773494e+01  4.8000000000e+00 0. 9.
      -24     2     4     0     0     0 -8.7979466502e+01 -1.8745161103e+01  2.3658658938e+02  2.6552080913e+02  8.0226667721e+01  1.683508e-13 9.
       -5     1     4     0     0   102 -3.4913617008e+01 -1.5860656885e+01  4.9107036500e+02  4.9258873766e+02  4.8000000000e+00 0. 9.
       -1     1     5     0     0   104  2.2088152941e+01 -3.2142555710e-01  1.3666804326e+02  1.3844223620e+02  3.3000000000e-01 0. 9.
        2     1     5     0   104     0  6.0161443623e+01  6.8097224118e+01  1.2205533607e+02  1.5216519048e+02  3.3000000000e-01 0. 9.
       13     1     7     0     0     0 -6.1629016418e+01 -1.3897367813e+01  2.2917270979e+02  2.3772129600e+02  1.0566000000e-01  2.895589e+06 9.
      -14     1     7     0     0     0 -2.6350450084e+01 -4.8477932900e+00  7.4138795935e+00  2.7799513126e+01  0.0000000000e+00 0. 9.
#pdf   21   21  1.620573e-01  7.774629e-03  2.094087e+02  3.892671e-01  9.822079e+00
</event>
<event>
    12  9999  1.000000e+00  1.778770e+02  7.877171e-03  1.072613e-01
       21    -1     0     0   101   102  0.0000000000e+00  0.0000000000e+00  1.3876072197e+02  1.3876072197e+02  0.0000000000e+00 0. 9.
       21    -1     0     0   102   103  0.0000000000e+00  0.0000000000e+00 -4.5981728531e+02  4.5981728531e+02  0.0000000000e+00 0. 9.
        6     2     1     2   101     0  1.7896125083e+00 -5.0241619004e+01  5.2106520104e+01  1.8505504628e+02  1.7030225402e+02  1.683201e-13 9.
       -6     2     1     2     0   103 -1.7896125083e+00  5.0241619004e+01 -3.7316308344e+02  4.1352296100e+02  1.7094773891e+02  2.999214e-13 9.
       24     2     3     0     0     0 -4.8852553462e+01  4.4708477207e+00  5.7175033010e+01  1.1017639236e+02  8.0394605387e+01  2.469269e-13 9.
        5     1     3     0   101     0  5.0642165971e+01 -5.4712466725e+01 -5.0685129065e+00  7.4878653917e+01  4.8000000000e+00 0. 9.
      -24     2     4     0     0     0 -3.2089170143e+01  7.4245216285e+01 -3.2454408245e+02  3.5122462127e+02  1.0718118377e+02  5.692061e-14 9.
       -5     1     4     0     0   103  3.0299557634e+01 -2.4003597281e+01 -4.8619000993e+01  6.2298339728e+01  4.8000000000e+00 0. 9.
       -3     1     5     0     0   104  7.0708130415e+00  2.8260235011e+01  3.4827278992e+01  4.5407341278e+01  5.0000000000e-01 0. 9.
        4     1     5     0   104     0 -5.5923366504e+01 -2.3789387291e+01  2.2347754018e+01  6.4769051085e+01  1.5000000000e+00 0. 9.
        1     1     7     0   105     0 -8.2938450099e+00  4.5343478351e+01 -3.1577199978e+01  5.5875283914e+01  3.3000000000e-01 0. 9.
       -2     1     7     0     0   105 -2.3795325133e+01  2.8901737934e+01 -2.9296688247e+02  2.9534933736e+02  3.3000000000e-01 0. 9.
#pdf   21   21  2.134780e-02  7.074112e-02  1.775677e+02  4.367746e+00  1.289096e+00
</event>
<event>
    12  9999  1.000000e+00  3.206625e+02  7.930551e-03  1.000101e-01
       21    -1     0     0   101   102  0.0000000000e+00  0.0000000000e+00  4.7456140287e+02  4.7456140287e+02  0.0000000000e+00 0. 9.
       21    -1     0     0   102   103  0.0000000000e+00  0.0000000000e+00 -2.5925583656e+02  2.5925583656e+02  0.0000000000e+00 0. 9.
        6     2     1     2   101     0  1.6764258029e+02 -2.1312075066e+02  2.5636280048e+02  4.1056942266e+02  1.7123339704e+02  1.664480e-13 9.
       -6     2     1     2     0   103 -1.6764258029e+02  2.1312075066e+02 -4.1057234172e+01  3.2324781677e+02  1.7111097416e+02  2.207411e-15 9.
       24     2     3     0     0     0  1.4622013338e+02 -2.2966265092e+02  1.9223565998e+02  3.4079918656e+02  7.1163726422e+01  2.985789e-14 9.
        5     1     3     0   101     0  2.1422446916e+01  1.6541900261e+01  6.4127140509e+01  6.9770236103e+01  4.8000000000e+00 0. 9.
      -24     2     4     0     0     0 -1.7692568669e+02  1.6669816766e+02 -7.3468164872e+01  2.6567403188e+02  7.8064987394e+01  1.228727e-13 9.
       -5     1     4     0     0   103  9.2831063942e+00  4.6422583001e+01  3.2410930700e+01  5.7573784882e+01  4.8000000000e+00 0. 9.
       -1     1     5     0     0   104  1.2510234613e+02 -1.3352391127e+02  1.2550977907e+02  2.2188295435e+02  3.3000000000e-01 0. 9.
        2     1     5     0   104     0  2.1117787245e+01 -9.6138739649e+01  6.6725880910e+01  1.1891623221e+02  3.3000000000e-01 0. 9.
       15     1     7     0     0     0 -1.8391159429e+01  6.3459916064e+01 -2.0890674862e+01  6.9317913107e+01  1.7768200000e+00  1.548317e-01 9.
      -16     1     7     0     0     0 -1.5853452726e+02  1.0323825160e+02 -5.2577490009e+01  1.9635611878e+02  0.0000000000e+00 0. 9.
#pdf   21   21  7.300945e-02  3.988551e-02  3.206298e+02  1.180394e+00  2.352108e+00
</event>
<event>
    12  9999  1.000000e+00  3.026704e+02  7.925288e-03  1.006765e-01
       21    -1     0     0   101   102  0.0000000000e+00  0.0000000000e+00  2.0583420702e+03  2.0583420702e+03  0.0000000000e+00 0. 9.
       21    -1     0     0   102   103  0.0000000000e+00  0.0000000000e+00 -4.5205482211e+01  4.5205482211e+01  0.0000000000e+00 0. 9.
        6     2     1     2   101     0 -2.4977150405e+02 -5.6504689388e+00  8.7603002445e+02  9.2686859373e+02  1.7099431064e+02  1.074504e-13 9.
       -6     2     1     2     0   103  2.4977150405e+02  5.6504689388e+00  1.1371065636e+03  1.1766789587e+03  1.7071702590e+02  6.948582e-15 9.
       24     2     3     0     0     0 -2.2417963379e+02 -9.4573341878e+00  5.4516182457e+02  5.9495559046e+02  8.0154789471e+01  2.873103e-14 9.
        5     1     3     0   101     0 -2.5591870253e+01  3.8068652490e+00  3.3086819988e+02  3.3191300327e+02  4.8000000000e+00 0. 9.
      -24     2     4     0     0     0  1.3802230760e+02 -3.6471012786e+01  4.4086241875e+02  4.7025058207e+02  7.9972779767e+01  5.041872e-14 9.
       -5     1     4     0     0   103  1.1174919645e+02  4.2121481725e+01  6.9624414481e+02  7.0642837664e+02  4.8000000000e+00 0. 9.
       -1     1     5     0     0   104 -2.1974472045e+02  2.6541788265e+00  5.3549161420e+02  5.7883172391e+02  3.3000000000e-01 0. 9.
        2     1     5     0   104     0 -4.4349133452e+00 -1.2111513014e+01  9.6702103714e+00  1.6123866549e+01  3.3000000000e-01 0. 9.
        3     1     7     0   105     0  1.2750553669e+01 -3.5774044460e+01  1.1644423068e+02  1.2248211189e+02  5.0000000000e-01 0. 9.
       -4     1     7     0     0   105  1.2527175393e+02 -6.9696832621e-01  3.2441818808e+02  3.4776847018e+02  1.5000000000e+00 0. 9.
#pdf   21   21  3.166680e-01  6.954690e-03  3.025922e+02  7.710843e-02  1.074201e+01
</event>
<event>
    12  9999  1.000000e+00  2.190385e+02  7.895944e-03  1.045813e-01
       21    -1     0     0   101   102  0.0000000000e+00  0.0000000000e+00  1.8623932352e+02  1.8623932352e+02  0.0000000000e+00 0. 9.
       21    -1     0     0   103   101  0.0000000000e+00  0.0000000000e+00 -3.1249762709e+02  3.1249762709e+02  0.0000000000e+00 0. 9.
        6     2     1     2   103     0 -1.3432795898e+02  2.6617019418e+01 -1.6766375674e+02  2.7593951049e+02  1.7111110963e+02  1.797356e-15 9.
       -6     2     1     2     0   102  1.3432795898e+02 -2.6617019418e+01  4.1405453169e+01  2.2279744011e+02  1.7079760384e+02  1.611955e-15 9.
       24     2     3     0     0     0 -1.1239535213e+02 -1.3509690864e+01 -1.8088703432e+02  2.2809510443e+02  8.0573137905e+01  1.197328e-13 9.
        5     1     3     0   103     0 -2.1932606851e+01  4.0126710282e+01  1.3223277583e+01  4.7844406061e+01  4.8000000000e+00 0. 9.
      -24     2     4     0     0     0  3.8523199922e+01 -2.4659397185e+01  7.2504801636e+01  1.2193816379e+02  8.6717049805e+01  3.216251e-14 9.
       -5     1     4     0     0   102  9.5804759063e+01 -1.9576222329e+00 -3.1099348467e+01  1.0085927632e+02  4.8000000000e+00 0. 9.
      -15     1     5     0     0     0 -1.1002198532e+02  1.3037127710e+01 -1.3136804955e+02  1.7185902794e+02  1.7768200000e+00  2.489683e-02 9.
       16     1     5     0     0     0 -2.3733668133e+00 -2.6546818573e+01 -4.9518984769e+01  5.6236076490e+01  0.0000000000e+00 0. 9.
        1     1     7     0   104     0  1.5349032884e+01  3.2513452682e+01  2.1512521734e+01  4.1900058558e+01  3.3000000000e-01 0. 9.
       -2     1     7     0     0   104  2.3174167038e+01 -5.7172849868e+01  5.0992279902e+01  8.0038105234e+01  3.3000000000e-01 0. 9.
#pdf   21   21  2.865220e-02  4.807656e-02  2.189162e+02  3.323191e+00  1.971951e+00
</event>
<event>
    12  9999  1.000000e+00  1.849132e+02  7.880663e-03  1.067513e-01
       21    -1     0     0   101   102  0.0000000000e+00  0.0000000000e+00  3.8122066113e+02  3.8122066113e+02  0.0000000000e+00 0. 9.
       21    -1     0     0   103   101  0.0000000000e+00  0.0000000000e+00 -1.2407353295e+02  1.2407353295e+02  0.0000000000e+00 0. 9.
        6     2     1     2   103     0 -5.5769964688e+01 -4.0413211465e+01 -4.4776994247e+00  1.8485213701e+02  1.7148395302e+02  1.393342e-13 9.
       -6     2     1     2     0   102  5.5769964688e+01  4.0413211465e+01  2.6162482760e+02  3.2044205707e+02  1.7173248062e+02  4.178834e-13 9.
       24     2     3     0     0     0 -6.6252550578e+01  5.9600417809e+00 -5.4404124821e+01  1.1574315658e+02  7.7535456022e+01  8.200831e-14 9.
        5     1     3     0   103     0  1.0482585890e+01 -4.6373253246e+01  4.9926425396e+01  6.9108980432e+01  4.8000000000e+00 0. 9.
      -24     2     4     0     0     0  2.5193034180e+01  4.9011279701e+01  5.5326387646e+01  1.1165757062e+02  7.9809832706e+01  1.769971e-13 9.
       -5     1     4     0     0   102  3.0576930508e+01 -8.5980682351e+00  2.0629843996e+02  2.0878448646e+02  4.8000000000e+00 0. 9.
      -13     1     5     0     0     0  5.2080586242e+00  2.5768852717e+01 -5.3432118329e+00  2.6827573907e+01  1.0566000000e-01  3.575715e+05 9.
       14     1     5     0     0     0 -7.1460609202e+01 -1.9808810936e+01 -4.9060912988e+01  8.8915582670e+01  0.0000000000e+00 0. 9.
        1     1     7     0   104     0  2.0852565342e+01  4.0691490578e+01  7.6145282710e+01  8.8819141325e+01  3.3000000000e-01 0. 9.
       -2     1     7     0     0   104  4.3404688380e+00  8.3197891226e+00 -2.0818895063e+01  2.2838429290e+01  3.3000000000e-01 0. 9.
#pdf   21   21  5.864933e-02  1.908824e-02  1.847979e+02  1.600430e+00  4.809563e+00
</event>
<event>
    12  9999  1.000000e+00  2.644893e+02  7.913027e-03  1.022681e-01
       21    -1     0     0   101   102  0.0000000000e+00  0.0000000000e+00  8.0145279717e+01  8.0145279717e+01  0.0000000000e+00 0. 9.
       21    -1     0     0   102   103  0.0000000000e+00  0.0000000000e+00 -1.1020135512e+03  1.1020135512e+03  0.0000000000e+00 0. 9.
        6     2     1     2   101     0  2.4960722598e+01 -1.8798638213e+02 -2.5638086479e+02  3.7520115392e+02  1.9769380500e+02  1.986794e-13 9.
       -6     2     1     2     0   103 -2.4960722598e+01  1.8798638213e+02 -7.6548740665e+02  8.0695767696e+02  1.7101989683e+02  5.849478e-13 9.
       24     2     3     0     0     0 -3.3478451293e+01 -1.9384817858e+02 -2.2063067100e+02  3.0627645546e+02  8.0183858371e+01  6.973032e-14 9.
        5     1     3     0   101     0  5.8439173891e+01  5.8617964487e+00 -3.5750193795e+01  6.8924698469e+01  4.8000000000e+00 0. 9.
      -24     2     4     0     0     0 -7.5978834993e+01  1.7172562580e+02 -5.9766785998e+02  6.3073707590e+02  7.3211434515e+01  2.089844e-13 9.
       -5     1     4     0     0   103  5.1018112396e+01  1.6260756327e+01 -1.6781954668e+02  1.7622060105e+02  4.8000000000e+00 0. 9.
      -13     1     5     0     0     0 -2.0554776331e+01 -1.8967434638e+02 -1.7579030360e+02  2.5942455263e+02  1.0566000000e-01  4.239669e+04 9.
       14     1     5     0     0     0 -1.2923674962e+01 -4.1738321969e+00 -4.4840367401e+01  4.6851902826e+01  0.0000000000e+00 0. 9.
        3     1     7     0   104     0  2.6651074074e+00  8.2674800656e+01 -2.4910546413e+02  2.6248049017e+02  5.0000000000e-01 0. 9.
       -4     1     7     0     0   104 -7.8643942401e+01  8.9050825145e+01 -3.4856239585e+02  3.6825658573e+02  1.5000000000e+00 0. 9.
#pdf   21   21  1.233004e-02  1.695405e-01  2.553619e+02  6.891856e+00  3.491342e-01
</event>
<event>
    12  9999  1.000000e+00  2.149793e+02  7.894254e-03  1.048166e-01
       21    -1     0     0   101   102  0.0000000000e+00  0.0000000000e+00  1.8494256887e+03  1.8494256887e+03  0.0000000000e+00 0. 9.
       21    -1     0     0   103   101  0.0000000000e+00  0.0000000000e+00 -3.5165292062e+01  3.5165292062e+01  0.0000000000e+00 0. 9.
        6     2     1     2   103     0  3.9077414513e+01 -1.2211550058e+02  3.9659538150e+02  4.5053406962e+02  1.7103745629e+02  2.197559e-13 9.
       -6     2     1     2     0   102 -3.9077414513e+01  1.2211550058e+02  1.4176650151e+03  1.4340569111e+03  1.7408586801e+02  4.248401e-14 9.
       24     2     3     0     0     0  7.1282463790e+00 -1.2015750523e+02  1.7745622222e+02  2.2901749187e+02  8.0434214212e+01  4.527283e-15 9.
        5     1     3     0   103     0  3.1949168134e+01 -1.9579953438e+00  2.1913915927e+02  2.2151657775e+02  4.8000000000e+00 0. 9.
      -24     2     4     0     0     0 -1.3177125701e+01  1.4642345945e+02  1.3089295958e+03  1.3195661550e+03  7.9653527948e+01  8.801065e-14 9.
       -5     1     4     0     0   102 -2.5900288812e+01 -2.4307958871e+01  1.0873541927e+02  1.1449075609e+02  4.8000000000e+00 0. 9.
      -13     1     5     0     0     0  3.5901331965e+00 -1.0085566097e+02  1.8268717821e+02  2.0870881546e+02  1.0566000000e-01  1.126541e+05 9.
       14     1     5     0     0     0  3.5381131825e+00 -1.9301844265e+01 -5.2309559846e+00  2.0308676407e+01  0.0000000000e+00 0. 9.
        3     1     7     0   104     0  2.5767950200e+01  2.5836565036e+01  1.8914865052e+02  1.9263690546e+02  5.0000000000e-01 0. 9.
       -4     1     7     0     0   104 -3.8945075901e+01  1.2058689441e+02  1.1197809453e+03  1.1269292496e+03  1.5000000000e+00 0. 9.
#pdf   21   21  2.845270e-01  5.410045e-03  2.137593e+02  1.163049e-01  1.277419e+01
</event>
<event>
    12  9999  1.000000e+00  1.768243e+02  7.876637e-03  1.073398e-01
       21    -1     0     0   101   102  0.0000000000e+00  0.0000000000e+00  1.5956891910e+01  1.5956891910e+01  0.0000000000e+00 0. 9.
       21    -1     0     0   102   103  0.0000000000e+00  0.0000000000e+00 -1.9890514725e+03  1.9890514725e+03  0.0000000000e+00 0. 9.
        6     2     1     2   101     0 -7.9718962015e+00  4.5849985446e+01 -8.6589988015e+02  8.8382924909e+02  1.7089694792e+02  1.004444e-13 9.
       -6     2     1     2     0   103  7.9718962015e+00 -4.5849985446e+01 -1.1071947004e+03  1.1211791153e+03  1.7028426719e+02  3.040913e-14 9.
       24     2     3     0     0     0 -1.9701049673e+01  8.9699287850e+01 -4.8069726118e+02  4.9593179869e+02  8.0277010727e+01  2.075665e-14 9.
        5     1     3     0   101     0  1.1729153471e+01 -4.3849302405e+01 -3.8520261898e+02  3.8789745040e+02  4.8000000000e+00 0. 9.
      -24     2     4     0     0     0 -5.6133724485e+00 -2.7704511245e+01 -2.5914013440e+02  2.7280808521e+02  8.0446206887e+01  3.913983e-13 9.
       -5     1     4     0     0   103  1.3585268650e+01 -1.8145474200e+01 -8.4805456601e+02  8.4837103009e+02  4.8000000000e+00 0. 9.
       -1     1     5     0     0   104  9.2745370702e+00  1.3805837767e+01 -1.2680967253e+01  2.0917313996e+01  3.3000000000e-01 0. 9.
        2     1     5     0   104     0 -2.8975586743e+01  7.5893450083e+01 -4.6801629392e+02  4.7501448469e+02  3.3000000000e-01 0. 9.
       11     1     7     0     0     0 -1.7858784216e+01 -5.0848768351e+01 -2.1343314659e+02  2.2013232721e+02  5.1100000000e-04 0. 9.
      -12     1     7     0     0     0  1.2245411768e+01  2.3144257106e+01 -4.5706987811e+01  5.2675758002e+01  0.0000000000e+00 0. 9.
#pdf   21   21  2.454906e-03  3.060079e-01  1.765290e+02  2.148746e+01  9.862707e-02
</event>
<event>
    12  9999  1.000000e+00  2.492391e+02  7.907638e-03  1.029854e-01
       -1    -1     0     0     0   101  0.0000000000e+00  0.0000000000e+00  2.8615031650e+01  2.8615031650e+01  0.0000000000e+00 0. 9.
        1    -1     0     0   102     0  0.0000000000e+00  0.0000000000e+00 -2.2110361374e+03  2.2110361374e+03  0.0000000000e+00 0. 9.
       -6     2     1     2     0   101  1.3268542535e+02  1.2650033398e+02 -9.3824026218e+02  9.7065573380e+02  1.6813687105e+02  3.210130e-13 9.
        6     2     1     2   102     0 -1.3268542535e+02 -1.2650033398e+02 -1.2441808436e+03  1.2689954353e+03  1.6957501750e+02  2.947802e-14 9.
      -24     2     3     0     0     0  1.3358192495e+02  9.6181906226e+01 -9.1279702642e+02  9.3077580128e+02  7.7782331150e+01  6.102770e-14 9.
       -5     1     3     0     0   101 -8.9649960783e-01  3.0318427751e+01 -2.5443235755e+01  3.9879932529e+01  4.8000000000e+00 0. 9.
       24     2     4     0     0     0 -1.4114642719e+02 -8.0496104041e+01 -7.1200882371e+02  7.3475010166e+02  8.0617679090e+01  8.044618e-14 9.
        5     1     4     0   102     0  8.4610018475e+00 -4.6004229935e+01 -5.3217201987e+02  5.3424533359e+02  4.8000000000e+00 0. 9.
       15     1     5     0     0     0  7.2257370519e+01  1.1765281065e+01 -2.7915120472e+02  2.8859678033e+02  1.7768200000e+00  1.344834e-02 9.
      -16     1     5     0     0     0  6.1324554435e+01  8.4416625161e+01 -6.3364582170e+02  6.4217902095e+02  0.0000000000e+00 0. 9.
      -13     1     7     0     0     0  8.2898616176e+00  3.7462494790e+00 -2.3696550828e+01  2.5382944588e+01  1.0566000000e-01  5.181565e+05 9.
       14     1     7     0     0     0 -1.4943628881e+02 -8.4242353520e+01 -6.8831227288e+02  7.0936715707e+02  0.0000000000e+00 0. 9.
#pdf   -1    1  4.402313e-03  3.401594e-01  2.487524e+02  8.451933e-01  9.309846e-02
</event>
<event>
    12  9999  1.000000e+00  1.726217e+02  7.874474e-03  1.076589e-01
       21    -1     0     0   101   102  0.0000000000e+00  0.0000000000e+00  1.9158259356e+02  1.9158259356e+02  0.0000000000e+00 0. 9.
       21    -1     0     0   103   101  0.0000000000e+00  0.0000000000e+00 -2.3101893554e+02  2.3101893554e+02  0.0000000000e+00 0. 9.
        6     2     1     2   103     0 -2.7438599234e+01 -2.0386625823e+00 -1.4049256168e+02  2.2250457308e+02  1.7033229957e+02  1.233217e-14 9.
       -6     2     1     2     0   102  2.7438599234e+01  2.0386625823e+00  1.0105621971e+02  2.0009695602e+02  1.7049750554e+02  3.935181e-13 9.
       24     2     3     0     0     0 -6.2428641412e+01  3.6372933615e+01 -5.5948836625e+01  1.2315450906e+02  8.2561705486e+01  8.908354e-15 9.
        5     1     3     0   103     0  3.4990042178e+01 -3.8411596197e+01 -8.4543725058e+01  9.9350064020e+01  4.8000000000e+00 0. 9.
      -24     2     4     0     0     0 -1.5282194983e+01 -3.3913091970e+01  6.1048588228e+00  8.9840909263e+01  8.1550453005e+01  8.586598e-15 9.
       -5     1     4     0     0   102  4.2720794217e+01  3.5951754552e+01  9.4951360883e+01  1.1025604676e+02  4.8000000000e+00 0. 9.
       -3     1     5     0     0   104  7.6971006866e+00 -1.5252465004e+01 -2.5886091065e+01  3.1019715639e+01  5.0000000000e-01 0. 9.
        4     1     5     0   104     0 -7.0125742098e+01  5.1625398618e+01 -3.0062745560e+01  9.2134793417e+01  1.5000000000e+00 0. 9.
        1     1     7     0   105     0  1.4745079723e+01 -2.1366621624e+01 -3.1032856868e+01  4.0461055363e+01  3.3000000000e-01 0. 9.
       -2     1     7     0     0   105 -3.0027274706e+01 -1.2546470346e+01  3.7137715691e+01  4.9379853900e+01  3.3000000000e-01 0. 9.
#pdf   21   21  2.947425e-02  3.554137e-02  1.725402e+02  3.262920e+00  2.725727e+00
</event>
<event>
    12  9999  1.000000e+00  1.776858e+02  7.877075e-03  1.072755e-01
       21    -1     0     0   101   102  0.0000000000e+00  0.0000000000e+00  3.8262505711e+02  3.8262505711e+02  0.0000000000e+00 0. 9.
       21    -1     0     0   102   103  0.0000000000e+00  0.0000000000e+00 -8.3775978121e+01  8.3775978121e+01  0.0000000000e+00 0. 9.
        6     2     1     2   101     0 -1.4385786059e+01 -4.3507478811e+01  1.7758203368e+02  2.5083242009e+02  1.7111888478e+02  2.828515e-14 9.
       -6     2     1     2     0   103  1.4385786059e+01  4.3507478811e+01  1.2126704531e+02  2.1556861514e+02  1.7223321399e+02  2.373431e-13 9.
       24     2     3     0     0     0  5.7772693143e+01 -2.3532343400e+01  1.0360313029e+02  1.4546748141e+02  8.0843826507e+01  4.796423e-14 9.
        5     1     3     0   101     0 -7.2158479202e+01 -1.9975135411e+01  7.3978903394e+01  1.0536493868e+02  4.8000000000e+00 0. 9.
      -24     2     4     0     0     0 -4.8891486472e+01  5.9711515774e+01  9.0405559717e+01  1.4316657562e+02  7.9797622662e+01  2.821330e-14 9.
       -5     1     4     0     0   103  6.3277272532e+01 -1.6204036963e+01  3.0861485589e+01  7.2402039513e+01  4.8000000000e+00 0. 9.
       -1     1     5     0     0   104  1.4343190491e+01 -2.3558885450e+01  9.7842496639e+01  1.0165633894e+02  3.3000000000e-01 0. 9.
        2     1     5     0   104     0  4.3429502652e+01  2.6542050139e-02  5.7606336460e+00  4.3811142476e+01  3.3000000000e-01 0. 9.
       13     1     7     0     0     0  5.4428978055e+00  9.8811982004e+00 -1.2332002892e+01  1.6713846767e+01  1.0566000000e-01  3.177523e+05 9.
      -14     1     7     0     0     0 -5.4334384278e+01  4.9830317573e+01  1.0273756261e+02  1.2645272886e+02  0.0000000000e+00 0. 9.
#pdf   21   21  5.886539e-02  1.288861e-02  1.771483e+02  1.598393e+00  6.651810e+00
</event>
<event>
    12  9999  1.000000e+00  1.756031e+02  7.876014e-03  1.074315e-01
       21    -1     0     0   101   102  0.0000000000e+00  0.0000000000e+00  1.0038685387e+02  1.0038685387e+02  0.0000000000e+00 0. 9.
       21    -1     0     0   103   101  0.0000000000e+00  0.0000000000e+00 -4.5565503705e+02  4.5565503705e+02  0.0000000000e+00 0. 9.
        6     2     1     2   103     0 -3.9117720327e+01 -1.6606541220e+00 -3.3680793146e+02  3.8015773985e+02  1.7189348639e+02  1.841259e-13 9.
       -6     2     1     2     0   102  3.9117720327e+01  1.6606541220e+00 -1.8460251729e+01  1.7588415107e+02  1.7047433792e+02  2.089951e-13 9.
       24     2     3     0     0     0  1.7193659664e+01  5.2762653897e+00 -7.2847704132e+01  1.1012601213e+02  8.0607007395e+01  1.018908e-14 9.
        5     1     3     0   103     0 -5.6311379990e+01 -6.9369195117e+00 -2.6396022732e+02  2.7003172772e+02  4.8000000000e+00 0. 9.
      -24     2     4     0     0     0  7.3006591410e+01 -4.5846130374e+01 -1.4435226777e+01  1.1719351312e+02  7.8064804406e+01  2.112494e-14 9.
       -5     1     4     0     0   102 -3.3888871083e+01  4.7506784496e+01 -4.0250249520e+00  5.8690637944e+01  4.8000000000e+00 0. 9.
       -3     1     5     0     0   104 -1.9597337265e+01  2.1960868357e+01 -3.2195132366e+00  2.9613352265e+01  5.0000000000e-01 0. 9.
        4     1     5     0   104     0  3.6790996928e+01 -1.6684602968e+01 -6.9628190896e+01  8.0512659865e+01  1.5000000000e+00 0. 9.
       11     1     7     0     0     0  8.2886337099e+01 -1.8960154599e+01  1.9995790479e-01  8.5027479814e+01  5.1100000000e-04 0. 9.
      -12     1     7     0     0     0 -9.8797456894e+00 -2.6885975775e+01 -1.4635184682e+01  3.2166033311e+01  0.0000000000e+00 0. 9.
#pdf   21   21  1.544413e-02  7.010077e-02  1.749127e+02  5.746960e+00  1.304803e+00
</event>
<event>
    12  9999  1.000000e+00  2.130406e+02  7.893435e-03  1.049309e-01
       21    -1     0     0   101   102  0.0000000000e+00  0.0000000000e+00  8.6590738064e+02  8.6590738064e+02  0.0000000000e+00 0. 9.
       21    -1     0     0   103   101  0.0000000000e+00  0.0000000000e+00 -7.3893819932e+01  7.3893819932e+01  0.0000000000e+00 0. 9.
        6     2     1     2   103     0  1.2434467398e+02  8.5225562361e+00  1.4487212330e+02  2.5900916437e+02  1.7482443538e+02  6.637905e-14 9.
       -6     2     1     2     0   102 -1.2434467398e+02 -8.5225562361e+00  6.4714143740e+02  6.8079203620e+02  1.7073817569e+02  1.040110e-13 9.
       24     2     3     0     0     0  1.4753714571e+02  3.9337695415e+01  9.8804569465e+01  1.9873708904e+02  8.0121307836e+01  7.593952e-15 9.
        5     1     3     0   103     0 -2.3192471730e+01 -3.0815139178e+01  4.6067553835e+01  6.0272075325e+01  4.8000000000e+00 0. 9.
      -24     2     4     0     0     0 -7.1338820216e+01  1.7753091981e+01  5.8434555844e+02  5.9438374588e+02  8.0174223695e+01  2.442586e-14 9.
       -5     1     4     0     0   102 -5.3005853763e+01 -2.6275648217e+01  6.2795878962e+01  8.6408290325e+01  4.8000000000e+00 0. 9.
       -1     1     5     0     0   104  6.5231373749e+01  3.7913918569e+01  7.5300219525e+00  7.5824847333e+01  3.3000000000e-01 0. 9.
        2     1     5     0   104     0  8.2305771960e+01  1.4237768456e+00  9.1274547512e+01  1.2291224171e+02  3.3000000000e-01 0. 9.
        3     1     7     0   105     0 -4.0903304260e+01  4.2072919988e+01  4.6833963229e+02  4.7200155940e+02  5.0000000000e-01 0. 9.
       -4     1     7     0     0   105 -3.0435515956e+01 -2.4319828007e+01  1.1600592615e+02  1.2238218648e+02  1.5000000000e+00 0. 9.
#pdf   21   21  1.332165e-01  1.136828e-02  2.113901e+02  5.350236e-01  7.350929e+00
</event>
<event>
    12  9999  1.000000e+00  1.716931e+02  7.873989e-03  1.077308e-01
       21    -1     0     0   101   102  0.0000000000e+00  0.0000000000e+00  5.7754822307e+01  5.7754822307e+01  0.0000000000e+00 0. 9.
       21    -1     0     0   102   103  0.0000000000e+00  0.0000000000e+00 -5.4662876282e+02  5.4662876282e+02  0.0000000000e+00 0. 9.
        6     2     1     2   101     0 -1.3600721541e+01  8.2066418142e+00 -1.6674669247e+02  2.3939160398e+02  1.7103085105e+02  4.198393e-13 9.
       -6     2     1     2     0   103  1.3600721541e+01 -8.2066418142e+00 -3.2212724804e+02  3.6499198115e+02  1.7088257305e+02  6.261696e-14 9.
       24     2     3     0     0     0  2.6103375604e+01 -2.6732843064e+01 -2.9343432015e+01  9.2082816338e+01  7.8880776785e+01  1.198084e-15 9.
        5     1     3     0   101     0 -3.9704097145e+01  3.4939484878e+01 -1.3740326045e+02  1.4730878764e+02  4.8000000000e+00 0. 9.
      -24     2     4     0     0     0 -2.5042671452e+01  1.8280251186e+01 -7.6623795892e+01  1.1501227729e+02  7.9970712470e+01  7.697792e-14 9.
       -5     1     4     0     0   103  3.8643392993e+01 -2.6486893000e+01 -2.4550345215e+02  2.4997970386e+02  4.8000000000e+00 0. 9.
       -3     1     5     0     0   104  1.6515548925e+01  3.8002991040e+00  2.4282207761e+01  2.9615557454e+01  5.0000000000e-01 0. 9.
        4     1     5     0   104     0  9.5878266788e+00 -3.0533142168e+01 -5.3625639776e+01  6.2467258884e+01  1.5000000000e+00 0. 9.
        3     1     7     0   105     0  1.6663726174e+01 -2.1141094553e+01 -3.4727785901e+01  4.3941947641e+01  5.0000000000e-01 0. 9.
       -4     1     7     0     0   105 -4.1706397626e+01  3.9421345739e+01 -4.1896009991e+01  7.1070329646e+01  1.5000000000e+00 0. 9.
#pdf   21   21  8.885357e-03  8.409673e-02  1.716193e+02  8.856496e+00  1.043482e+00
</event>
<event>
    12  9999  1.000000e+00  2.322722e+02  7.901251e-03  1.038503e-01
       21    -1     0     0   101   102  0.0000000000e+00  0.0000000000e+00  1.9625110854e+03  1.9625110854e+03  0.0000000000e+00 0. 9.
       21    -1     0     0   102   103  0.0000000000e+00  0.0000000000e+00 -7.0859372798e+01  7.0859372798e+01  0.0000000000e+00 0. 9.
        6     2     1     2   101     0  6.4458813483e+01  1.4148852438e+02  1.7395384641e+03  1.7548383311e+03  1.7114192686e+02  4.004454e-13 9.
       -6     2     1     2     0   103 -6.4458813483e+01 -1.4148852438e+02  1.5211324846e+02  2.7853212703e+02  1.7397633249e+02  1.096243e-13 9.
       24     2     3     0     0     0  6.7289559825e+01  5.5574165398e+01  5.7917188214e+02  5.9128217230e+02  8.0982501182e+01  1.060088e-14 9.
        5     1     3     0   101     0 -2.8307463423e+00  8.5914358977e+01  1.1603665820e+03  1.1635561588e+03  4.8000000000e+00 0. 9.
      -24     2     4     0     0     0 -6.8474018217e+00 -7.7892845424e+01  9.3906656627e+00  1.1193002388e+02  7.9535924990e+01  3.488479e-14 9.
       -5     1     4     0     0   103 -5.7611411661e+01 -6.3595678951e+01  1.4272258280e+02  1.6660210315e+02  4.8000000000e+00 0. 9.
      -11     1     5     0     0     0 -1.2798716536e+00  3.3454289635e+00 -1.7597245065e+00  3.9908140773e+00  5.1100000000e-04 0. 9.
       12     1     5     0     0     0  6.8569431479e+01  5.2228736435e+01  5.8093160664e+02  5.8729135822e+02  0.0000000000e+00 0. 9.
        1     1     7     0   104     0 -1.5439558296e+01 -7.0436659833e+01  3.7734816549e+01  8.1386290546e+01  3.3000000000e-01 0. 9.
       -2     1     7     0     0   104  8.5921564746e+00 -7.4561855909e+00 -2.8344150886e+01  3.0543733333e+01  3.3000000000e-01 0. 9.
#pdf   21   21  3.019248e-01  1.090144e-02  2.312218e+02  9.595446e-02  7.599090e+00
</event>
<event>
    12  9999  1.000000e+00  1.946554e+02  7.885290e-03  1.060839e-01
       21    -1     0     0   101   102  0.0000000000e+00  0.0000000000e+00  4.5254331024e+02  4.5254331024e+02  0.0000000000e+00 0. 9.
       21    -1     0     0   103   101  0.0000000000e+00  0.0000000000e+00 -9.1242247756e+01  9.1242247756e+01  0.0000000000e+00 0. 9.
        6     2     1     2   103     0  4.9226994260e+01 -7.0250364329e+01  9.9962656166e+01  2.1593075865e+02  1.7109982247e+02  7.813699e-16 9.
       -6     2     1     2     0   102 -4.9226994260e+01  7.0250364329e+01  2.6133840632e+02  3.2785479935e+02  1.7841691676e+02  3.255683e-13 9.
       24     2     3     0     0     0 -1.9187848665e+01  1.2780146625e+01  5.7866857947e+01  1.0030311183e+02  7.8617016665e+01  1.337620e-15 9.
        5     1     3     0   103     0  6.8414842925e+01 -8.3030510954e+01  4.2095798219e+01  1.1562764682e+02  4.8000000000e+00 0. 9.
      -24     2     4     0     0     0 -6.8086672180e+01  5.8538884579e+01  2.7566110216e+02  3.0100287529e+02  8.0938814855e+01  2.041831e-13 9.
       -5     1     4     0     0   102  1.8859677921e+01  1.1711479750e+01 -1.4322695848e+01  2.6851924057e+01  4.8000000000e+00 0. 9.
       -1     1     5     0     0   104  2.2101115129e+01  2.1709117544e+01  3.0996163973e+00  3.1136178254e+01  3.3000000000e-01 0. 9.
        2     1     5     0   104     0 -4.1288963794e+01 -8.9289709188e+00  5.4767241550e+01  6.9166933573e+01  3.3000000000e-01 0. 9.
       15     1     7     0     0     0  4.8468263831e+00 -1.5288732620e+01  5.1833087431e+01  5.4286859488e+01  1.7768200000e+00  6.747568e-02 9.
      -16     1     7     0     0     0 -7.2933498563e+01  7.3827617198e+01  2.2382801473e+02  2.4671601580e+02  0.0000000000e+00 0. 9.
#pdf   21   21  6.962205e-02  1.403727e-02  1.913990e+02  1.306250e+00  6.211866e+00
</event>
<event>
    12  9999  1.000000e+00  1.723426e+02  7.874329e-03  1.076805e-01
       21    -1     0     0   101   102  0.0000000000e+00  0.0000000000e+00  5.9649973857e+02  5.9649973857e+02  0.0000000000e+00 0. 9.
       21    -1     0     0   103   101  0.0000000000e+00  0.0000000000e+00 -5.3766461454e+01  5.3766461454e+01  0.0000000000e+00 0. 9.
        6     2     1     2   103     0  2.5600429329e+01  9.9362474434e+00  1.8224408050e+02  2.5047631546e+02  1.6962125083e+02  1.987706e-13 9.
       -6     2     1     2     0   102 -2.5600429329e+01 -9.9362474434e+00  3.6048919662e+02  3.9978988456e+02  1.7066159476e+02  1.079144e-13 9.
       24     2     3     0     0     0 -4.7917321936e+01 -1.3466946844e+01  1.0672392985e+02  1.4240734486e+02  8.0077626507e+01  2.473655e-13 9.
        5     1     3     0   103     0  7.3517751265e+01  2.3403194287e+01  7.5520150652e+01  1.0806897061e+02  4.8000000000e+00 0. 9.
      -24     2     4     0     0     0  3.6596759091e+01  3.0379605132e+00  2.9836083482e+02  3.1079666202e+02  7.8910236269e+01  9.633642e-14 9.
       -5     1     4     0     0   102 -6.2197188420e+01 -1.2974207957e+01  6.2128361800e+01  8.8993222547e+01  4.8000000000e+00 0. 9.
       -1     1     5     0     0   104 -1.9270889635e+01 -4.6525157270e+01  6.1512751889e+01  7.9497704315e+01  3.3000000000e-01 0. 9.
        2     1     5     0   104     0 -2.8646432301e+01  3.3058210427e+01  4.5211177962e+01  6.2909640540e+01  3.3000000000e-01 0. 9.
        3     1     7     0   105     0  5.1756865449e+01  2.6157084079e+01  1.7469837683e+02  1.8407264608e+02  5.0000000000e-01 0. 9.
       -4     1     7     0     0   105 -1.5160106359e+01 -2.3119123566e+01  1.2366245798e+02  1.2672401593e+02  1.5000000000e+00 0. 9.
#pdf   21   21  9.176919e-02  8.271763e-03  1.718298e+02  9.317891e-01  9.340722e+00
</event>
<event>
    12  9999  1.000000e+00  3.343075e+02  7.934353e-03  9.953473e-02
       -2    -1     0     0     0   101  0.0000000000e+00  0.0000000000e+00  4.0179263902e+02  4.0179263902e+02  0.0000000000e+00 0. 9.
        2    -1     0     0   102     0  0.0000000000e+00  0.0000000000e+00 -2.9591863185e+02  2.9591863185e+02  0.0000000000e+00 0. 9.
       -6     2     1     2     0   101  1.8891144199e+02 -2.0867008009e+02 -3.2902954143e+01  3.3309722807e+02  1.7504406221e+02  2.264458e-15 9.
        6     2     1     2   102     0 -1.8891144199e+02  2.0867008009e+02  1.3877696131e+02  3.6461404279e+02  1.8561686337e+02  3.784268e-14 9.
      -24     2     3     0     0     0  1.1262389130e+02 -1.8677187907e+02  2.5518396825e+01  2.3442901714e+02  8.2084711114e+01  1.828430e-14 9.
       -5     1     3     0     0   101  7.6287550691e+01 -2.1898201022e+01 -5.8421350968e+01  9.8668210927e+01  4.8000000000e+00 0. 9.
       24     2     4     0     0     0 -2.0992166666e+02  2.0605104279e+02  1.4909576710e+02  3.4057643372e+02  8.5080086226e+01  1.280791e-13 9.
        5     1     4     0   102     0  2.1010224669e+01  2.6190373075e+00 -1.0318805786e+01  2.4037609072e+01  4.8000000000e+00 0. 9.
        1     1     5     0   103     0  8.4215264999e+01 -1.4544427793e+02 -1.6672173440e+01  1.6889144178e+02  3.3000000000e-01 0. 9.
       -2     1     5     0     0   103  2.8408626303e+01 -4.1327601144e+01  4.2190570265e+01  6.5537575360e+01  3.3000000000e-01 0. 9.
       -1     1     7     0     0   104 -1.6285706165e+02  1.4995342556e+02  1.4988371757e+02  2.6734563781e+02  3.3000000000e-01 0. 9.
        2     1     7     0   104     0 -4.7064605012e+01  5.6097617229e+01 -7.8795046584e-01  7.3230795910e+01  3.3000000000e-01 0. 9.
#pdf   -2    2  6.181425e-02  4.552594e-02  3.314682e+02  1.242079e-01  6.272524e-01
</event>
<event>
    12  9999  1.000000e+00  1.726639e+02  7.874496e-03  1.076557e-01
       21    -1     0     0   101   102  0.0000000000e+00  0.0000000000e+00  1.4244511786e+02  1.4244511786e+02  0.0000000000e+00 0. 9.
       21    -1     0     0   103   101  0.0000000000e+00  0.0000000000e+00 -2.1122989514e+02  2.1122989514e+02  0.0000000000e+00 0. 9.
        6     2     1     2   103     0 -1.7762965607e+01 -1.7453635906e+01 -1.7581620018e+01  1.7411967879e+02  1.7143044312e+02  7.423642e-14 9.
       -6     2     1     2     0   102  1.7762965607e+01  1.7453635906e+01 -5.1203157262e+01  1.7955533421e+02  1.7028858557e+02  7.222242e-14 9.
       24     2     3     0     0     0 -4.2242150120e+01  4.8502919985e+01 -2.2763576280e+00  1.0196159680e+02  7.9082570298e+01  1.158633e-13 9.
        5     1     3     0   103     0  2.4479184514e+01 -6.5956555891e+01 -1.5305262390e+01  7.2158081988e+01  4.8000000000e+00 0. 9.
      -24     2     4     0     0     0  2.2971327088e+01  4.7409855286e+01 -8.8917706934e+01  1.3087341390e+02  8.0287705235e+01  1.323462e-13 9.
       -5     1     4     0     0   102 -5.2083614816e+00 -2.9956219380e+01  3.7714549672e+01  4.8681920317e+01  4.8000000000e+00 0. 9.
       -1     1     5     0     0   104 -3.0959015055e+00 -2.1206262519e+01  3.8546515944e+00  2.1777451987e+01  3.3000000000e-01 0. 9.
        2     1     5     0   104     0 -3.9146248615e+01  6.9709182503e+01 -6.1310092225e+00  8.0184144817e+01  3.3000000000e-01 0. 9.
        3     1     7     0   105     0 -2.1219582632e+01  7.9501515130e+00 -6.1560302529e+01  6.5600277771e+01  5.0000000000e-01 0. 9.
       -4     1     7     0     0   105  4.4190909721e+01  3.9459703773e+01 -2.7357404405e+01  6.5273136125e+01  1.5000000000e+00 0. 9.
#pdf   21   21  2.191463e-02  3.249691e-02  1.720998e+02  4.270747e+00  2.973990e+00
</event>
<event>
    12  9999  1.000000e+00  1.994396e+02  7.887479e-03  1.057712e-01
       21    -1     0     0   101   102  0.0000000000e+00  0.0000000000e+00  7.5220664998e+01  7.5220664998e+01  0.0000000000e+00 0. 9.
       21    -1     0     0   102   103  0.0000000000e+00  0.0000000000e+00 -5.3551030478e+02  5.3551030478e+02  0.0000000000e+00 0. 9.
        6     2     1     2   101     0  1.0064870769e+02 -1.2016457985e+01 -2.6590601726e+02  3.3325196975e+02  1.7342522222e+02  4.588785e-14 9.
       -6     2     1     2     0   103 -1.0064870769e+02  1.2016457985e+01 -1.9438362251e+02  2.7747900003e+02  1.7010304269e+02  1.830631e-13 9.
       24     2     3     0     0     0  8.8736511300e+01 -5.0129185288e+01 -2.6151836401e+02  2.9279493197e+02  8.3366143087e+01  5.571401e-14 9.
        5     1     3     0   101     0  1.1912196388e+01  3.8112727303e+01 -4.3876532516e+00  4.0457037785e+01  4.8000000000e+00 0. 9.
      -24     2     4     0     0     0 -6.9140516880e+01 -2.1462481218e+01 -3.9078561308e+01  1.1544101838e+02  8.0984230546e+01  6.024129e-14 9.
       -5     1     4     0     0   103 -3.1508190808e+01  3.3478939203e+01 -1.5530506121e+02  1.6203798164e+02  4.8000000000e+00 0. 9.
       -1     1     5     0     0   104  9.0112150263e+01 -5.3685384599e+01 -1.6069667223e+02  1.9190062405e+02  3.3000000000e-01 0. 9.
        2     1     5     0   104     0 -1.3756389633e+00  3.5561993104e+00 -1.0082169178e+02  1.0089430791e+02  3.3000000000e-01 0. 9.
       13     1     7     0     0     0  1.3672146138e+01 -2.7187579309e+00  1.0196457179e+01  1.7271309381e+01  1.0566000000e-01  1.178018e+06 9.
      -14     1     7     0     0     0 -8.2812663018e+01 -1.8743723287e+01 -4.9275018486e+01  9.8169709002e+01  0.0000000000e+00 0. 9.
#pdf   21   21  1.157241e-02  8.238620e-02  1.980141e+02  7.247037e+00  1.057447e+00
</event>
<event>
    12  9999  1.000000e+00  1.951634e+02  7.885525e-03  1.060502e-01
       21    -1     0     0   101   102  0.0000000000e+00  0.0000000000e+00  3.9383417111e+02  3.9383417111e+02  0.0000000000e+00 0. 9.
       21    -1     0     0   103   101  0.0000000000e+00  0.0000000000e+00 -9.7938677580e+01  9.7938677580e+01  0.0000000000e+00 0. 9.
        6     2     1     2   103     0 -7.0662719831e+01  4.4697832007e+01  1.2510521381e+02  2.3625883640e+02  1.8214227158e+02  1.968702e-14 9.
       -6     2     1     2     0   102  7.0662719831e+01 -4.4697832007e+01  1.7079027972e+02  2.5551401229e+02  1.7066626693e+02  2.566200e-13 9.
       24     2     3     0     0     0  1.3249326184e+01  6.4972421131e+01  9.9881537175e+01  1.4619461324e+02  8.3663512484e+01  1.311869e-14 9.
        5     1     3     0   103     0 -8.3912046015e+01 -2.0274589124e+01  2.5223676634e+01  9.0064223160e+01  4.8000000000e+00 0. 9.
      -24     2     4     0     0     0  9.9220309129e+01 -2.9153914234e+01  6.9262059785e+01  1.4879864915e+02  8.1542532483e+01  4.183942e-14 9.
       -5     1     4     0     0   102 -2.8557589298e+01 -1.5543917773e+01  1.0152821994e+02  1.0671536314e+02  4.8000000000e+00 0. 9.
       -1     1     5     0     0   104 -2.0579673873e+00 -1.1810316806e+01 -6.8608065602e+00  1.3816597971e+01  3.3000000000e-01 0. 9.
        2     1     5     0   104     0  1.5307293571e+01  7.6782737937e+01  1.0674234373e+02  1.3237801527e+02  3.3000000000e-01 0. 9.
        3     1     7     0   105     0  3.9476838000e+01  1.6219829486e-01  7.2068511483e+01  8.2174006804e+01  5.0000000000e-01 0. 9.
       -4     1     7     0     0   105  5.9743471129e+01 -2.9316112529e+01 -2.8064516981e+00  6.6624642344e+01  1.5000000000e+00 0. 9.
#pdf   21   21  6.058987e-02  1.506749e-02  1.900476e+02  1.538910e+00  5.863174e+00
</event>
<event>
    12  9999  1.000000e+00  2.122087e+02  7.893082e-03  1.049803e-01
       21    -1     0     0   101   102  0.0000000000e+00  0.0000000000e+00  3.3302564147e+02  3.3302564147e+02  0.0000000000e+00 0. 9.
       21    -1     0     0   103   101  0.0000000000e+00  0.0000000000e+00 -1.4265868713e+02  1.4265868713e+02  0.0000000000e+00 0. 9.
        6     2     1     2   103     0  9.6369973729e+01 -8.2134710051e+01  3.9934196893e+01  2.1360713733e+02  1.6733196529e+02  4.538417e-13 9.
       -6     2     1     2     0   102 -9.6369973729e+01  8.2134710051e+01  1.5043275744e+02  2.6207719126e+02  1.7326614567e+02  3.263942e-13 9.
       24     2     3     0     0     0 -1.0912953323e+01 -2.2532925738e+01  1.6037627902e+01  8.8482858556e+01  8.3337779290e+01  6.580866e-14 9.
        5     1     3     0   103     0  1.0728292705e+02 -5.9601784313e+01  2.3896568991e+01  1.2512427878e+02  4.8000000000e+00 0. 9.
      -24     2     4     0     0     0 -8.6012621059e+01  1.2013821289e+02  1.4502554220e+02  2.2202948273e+02  8.0207992939e+01  7.189759e-14 9.
       -5     1     4     0     0   102 -1.0357352670e+01 -3.8003502838e+01  5.4072152427e+00  4.0047708536e+01  4.8000000000e+00 0. 9.
       -3     1     5     0     0   104 -1.7583381396e+01  8.2916890308e+00 -2.8125557817e+01  3.4193923595e+01  5.0000000000e-01 0. 9.
        4     1     5     0   104     0  6.6704280730e+00 -3.0824614769e+01  4.4163185719e+01  5.4288934961e+01  1.5000000000e+00 0. 9.
        3     1     7     0   105     0 -8.7071904241e+01  5.5071672694e+01  8.8476380929e+01  1.3580399708e+02  5.0000000000e-01 0. 9.
       -4     1     7     0     0   105  1.0592831817e+00  6.5066540195e+01  5.6549161272e+01  8.6225485643e+01  1.5000000000e+00 0. 9.
#pdf   21   21  5.123471e-02  2.194749e-02  2.098411e+02  1.845052e+00  4.247223e+00
</event>
<event>
    12  9999  1.000000e+00  1.871344e+02  7.881739e-03  1.065953e-01
       21    -1     0     0   101   102  0.0000000000e+00  0.0000000000e+00  2.3788818781e+01  2.3788818781e+01  0.0000000000e+00 0. 9.
       21    -1     0     0   103   101  0.0000000000e+00  0.0000000000e+00 -1.7481094589e+03  1.7481094589e+03  0.0000000000e+00 0. 9.
        6     2     1     2   103     0  4.2697633101e+01  6.4225740394e+01 -1.2140411449e+03  1.2283727870e+03  1.7045752823e+02  6.030962e-14 9.
       -6     2     1     2     0   102 -4.2697633101e+01 -6.4225740394e+01 -5.1027949529e+02  5.4352549067e+02  1.7054841569e+02  1.470920e-15 9.
       24     2     3     0     0     0 -2.4952566426e+01  2.4778604563e+01 -3.5512098759e+02  3.6587669859e+02  8.0735574142e+01  2.126454e-13 9.
        5     1     3     0   103     0  6.7650199527e+01  3.9447135831e+01 -8.5892015727e+02  8.6249608845e+02  4.8000000000e+00 0. 9.
      -24     2     4     0     0     0 -3.5242105213e+01 -1.0724879307e+02 -3.8865920628e+02  4.1421538799e+02  8.8170853603e+01  1.119988e-14 9.
       -5     1     4     0     0   102 -7.4555278880e+00  4.3023052671e+01 -1.2162028900e+02  1.2931010268e+02  4.8000000000e+00 0. 9.
      -15     1     5     0     0     0  1.0664733656e+01  4.2943856392e+01 -2.3892617014e+02  2.4299543866e+02  1.7768200000e+00  2.869316e-02 9.
       16     1     5     0     0     0 -3.5617300082e+01 -1.8165251829e+01 -1.1619481745e+02  1.2288125993e+02  0.0000000000e+00 0. 9.
       15     1     7     0     0     0 -3.3819595907e+01 -2.5735947193e+00 -1.4670893744e+02  1.5058903636e+02  1.7768200000e+00  1.150705e-01 9.
      -16     1     7     0     0     0 -1.4225093068e+00 -1.0467519835e+02 -2.4195026884e+02  2.6362635163e+02  0.0000000000e+00 0. 9.
#pdf   21   21  3.659818e-03  2.689399e-01  1.870930e+02  1.661535e+01  1.395797e-01
</event>
<event>
    12  9999  1.000000e+00  1.422846e+02  7.857135e-03  1.105797e-01
       21    -1     0     0   101   102  0.0000000000e+00  0.0000000000e+00  2.0515580890e+02  2.0515580890e+02  0.0000000000e+00 0. 9.
       21    -1     0     0   102   103  0.0000000000e+00  0.0000000000e+00 -1.1977047420e+02  1.1977047420e+02  0.0000000000e+00 0. 9.
        6     2     1     2   101     0  4.1592214108e+01 -1.1058063758e+00  1.0938434275e+02  2.0801626618e+02  1.7197295565e+02  1.023222e-13 9.
       -6     2     1     2     0   103 -4.1592214108e+01  1.1058063758e+00 -2.3999008049e+01  1.1691001692e+02  1.0658735660e+02  4.151534e-14 9.
       24     2     3     0     0     0  2.1029738275e+01 -5.4956896227e+01  1.1082438349e+02  1.5015549356e+02  8.2474953387e+01  1.355963e-14 9.
        5     1     3     0   101     0  2.0562475833e+01  5.3851089851e+01 -1.4400407392e+00  5.7860772617e+01  4.8000000000e+00 0. 9.
      -24     2     4     0     0     0 -2.3006061404e+01  9.7785139564e+00 -3.7621235302e+01  9.1824841927e+01  7.9947145369e+01  6.009037e-14 9.
       -5     1     4     0     0   103 -1.8586152704e+01 -8.6727075806e+00  1.3622227253e+01  2.5085174993e+01  4.8000000000e+00 0. 9.
       -1     1     5     0     0   104 -3.0538154861e+01 -3.3847619593e+01  4.9254928137e+01  6.7114805373e+01  3.3000000000e-01 0. 9.
        2     1     5     0   104     0  5.1567893137e+01 -2.1109276634e+01  6.1569455354e+01  8.3040688191e+01  3.3000000000e-01 0. 9.
        3     1     7     0   105     0 -3.3925228451e+01  2.8272927159e+01  4.6276645236e+00  4.4406585261e+01  5.0000000000e-01 0. 9.
       -4     1     7     0     0   105  1.0919167047e+01 -1.8494413203e+01 -4.2248899826e+01  4.7418256666e+01  1.5000000000e+00 0. 9.
#pdf   21   21  3.156243e-02  1.842623e-02  1.144203e+02  3.093769e+00  4.963880e+00
</event>
<event>
    12  9999  1.000000e+00  1.876929e+02  7.882007e-03  1.065565e-01
       21    -1     0     0   101   102  0.0000000000e+00  0.0000000000e+00  3.4177924120e+01  3.4177924120e+01  0.0000000000e+00 0. 9.
       21    -1     0     0   103   101  0.0000000000e+00  0.0000000000e+00 -1.1153440544e+03  1.1153440544e+03  0.0000000000e+00 0. 9.
        6     2     1     2   103     0 -4.8592617810e+01  6.0551144619e+01 -3.8571260979e+02  4.2951440043e+02  1.7228093104e+02  3.041569e-14 9.
       -6     2     1     2     0   102  4.8592617810e+01 -6.0551144619e+01 -6.9545352051e+02  7.2000757812e+02  1.6949227042e+02  2.925442e-13 9.
       24     2     3     0     0     0 -1.5756550900e+01  2.1218978829e+01 -7.1681801606e+01  1.1129495563e+02  8.0930664823e+01  2.104628e-14 9.
        5     1     3     0   103     0 -3.2836066910e+01  3.9332165791e+01 -3.1403080819e+02  3.1821944480e+02  4.8000000000e+00 0. 9.
      -24     2     4     0     0     0 -1.1303939451e+01  2.1649688169e+01 -3.2137842443e+02  3.3232240689e+02  8.0979024354e+01  4.823688e-15 9.
       -5     1     4     0     0   102  5.9896557261e+01 -8.2200832788e+01 -3.7407509608e+02  3.8768517123e+02  4.8000000000e+00 0. 9.
       -1     1     5     0     0   104 -3.7782280024e+01 -1.6630861462e+01 -3.2667445714e+01  5.2643680972e+01  3.3000000000e-01 0. 9.
        2     1     5     0   104     0  2.2025729125e+01  3.7849840290e+01 -3.9014355892e+01  5.8651274659e+01  3.3000000000e-01 0. 9.
       13     1     7     0     0     0 -1.8562336810e+01  4.7181316479e+01 -2.6747592469e+02  2.7223889955e+02  1.0566000000e-01  2.741707e+05 9.
      -14     1     7     0     0     0  7.2583973594e+00 -2.5531628310e+01 -5.3902499741e+01  6.0083507344e+01  0.0000000000e+00 0. 9.
#pdf   21   21  5.258142e-03  1.715914e-01  1.864278e+02  1.296926e+01  3.586843e-01
</event>
<event>
    12  9999  1.000000e+00  1.781462e+02  7.877307e-03  1.072413e-01
       21    -1     0     0   101   102  0.0000000000e+00  0.0000000000e+00  7.5185831318e+01  7.5185831318e+01  0.0000000000e+00 0. 9.
       21    -1     0     0   102   103  0.0000000000e+00  0.0000000000e+00 -4.6436789947e+02  4.6436789947e+02  0.0000000000e+00 0. 9.
        6     2     1     2   101     0 -1.0890053735e+01  4.1092076278e+01 -1.1515695528e+02  2.1374720728e+02  1.7498454866e+02  2.624057e-14 9.
       -6     2     1     2     0   103  1.0890053735e+01 -4.1092076278e+01 -2.7402511288e+02  3.2580652351e+02  1.7103501475e+02  1.308139e-13 9.
       24     2     3     0     0     0  2.5901717042e+01  3.3061548803e+01  1.1190797084e+00  9.1430895694e+01  8.1205858120e+01  1.477507e-14 9.
        5     1     3     0   101     0 -3.6791770778e+01  8.0305274743e+00 -1.1627603499e+02  1.2231631159e+02  4.8000000000e+00 0. 9.
      -24     2     4     0     0     0  6.1272136040e+01 -3.3294639167e+01 -2.4368245729e+02  2.6628450245e+02  8.1630194182e+01  9.933342e-14 9.
       -5     1     4     0     0   103 -5.0382082305e+01 -7.7974371106e+00 -3.0342655589e+01  5.9522021060e+01  4.8000000000e+00 0. 9.
       -1     1     5     0     0   104  5.2043061380e+01  4.3629540210e+00 -3.4566502131e+00  5.2340929838e+01  3.3000000000e-01 0. 9.
        2     1     5     0   104     0 -2.6141344338e+01  2.8698594782e+01  4.5757299215e+00  3.9089965856e+01  3.3000000000e-01 0. 9.
        1     1     7     0   105     0  1.9582501218e+01 -3.8068949711e+01 -2.0429285897e+02  2.0873044917e+02  3.3000000000e-01 0. 9.
       -2     1     7     0     0   105  4.1689634822e+01  4.7743105439e+00 -3.9389598320e+01  5.7554053277e+01  3.3000000000e-01 0. 9.
#pdf   21   21  1.156705e-02  7.144122e-02  1.762388e+02  7.243172e+00  1.274635e+00
</event>
<event>
    12  9999  1.000000e+00  2.205980e+02  7.896586e-03  1.044923e-01
        1    -1     0     0   101     0  0.0000000000e+00  0.0000000000e+00  1.4275822793e+02  1.4275822793e+02  0.0000000000e+00 0. 9.
       -1    -1     0     0     0   102  0.0000000000e+00  0.0000000000e+00 -3.5808413862e+02  3.5808413862e+02  0.0000000000e+00 0. 9.
        6     2     1     2   101     0  1.3475185939e+02  2.9258919277e+01 -1.6302028835e+02  2.7513089566e+02  1.7351440103e+02  2.617541e-14 9.
       -6     2     1     2     0   102 -1.3475185939e+02 -2.9258919277e+01 -5.2305622331e+01  2.2571147089e+02  1.7086732280e+02  1.293879e-13 9.
       24     2     3     0     0     0  5.7678684997e+01  6.8008882315e+01 -1.4316357401e+02  1.8647897549e+02  7.9539679402e+01  3.088289e-13 9.
        5     1     3     0   101     0  7.7073174389e+01 -3.8749963038e+01 -1.9856714347e+01  8.8651920174e+01  4.8000000000e+00 0. 9.
      -24     2     4     0     0     0 -8.0743024554e+01 -4.8251413322e+01 -9.3689194937e+01  1.5490674540e+02  7.9817288990e+01  5.253889e-15 9.
       -5     1     4     0     0   102 -5.4008834832e+01  1.8992494045e+01  4.1383572605e+01  7.0804725489e+01  4.8000000000e+00 0. 9.
       -3     1     5     0     0   103  7.0522157921e+01  3.1661771685e+01 -1.1559528285e+02  1.3906243908e+02  5.0000000000e-01 0. 9.
        4     1     5     0   103     0 -1.2843472924e+01  3.6347110630e+01 -2.7568291153e+01  4.7416536409e+01  1.5000000000e+00 0. 9.
        1     1     7     0   104     0 -4.5496543142e+01 -5.5949451933e+00  2.9616747822e-01  4.5841416478e+01  3.3000000000e-01 0. 9.
       -2     1     7     0     0   104 -3.5246481413e+01 -4.2656468129e+01 -9.3985362415e+01  1.0906532892e+02  3.3000000000e-01 0. 9.
#pdf    1   -1  2.196280e-02  5.508987e-02  2.195673e+02  5.368676e-01  1.744654e-01
</event>
<event>
    12  9999  1.000000e+00  1.895307e+02  7.882885e-03  1.064296e-01
        2    -1     0     0   101     0  0.0000000000e+00  0.0000000000e+00  1.5315128882e+03  1.5315128882e+03  0.0000000000e+00 0. 9.
       -2    -1     0     0     0   102  0.0000000000e+00  0.0000000000e+00 -5.0825412783e+01  5.0825412783e+01  0.0000000000e+00 0. 9.
        6     2     1     2   101     0  7.6539802192e+01 -2.2768290438e+01  1.6038974041e+02  2.4855604100e+02  1.7227449120e+02  7.240335e-15 9.
       -6     2     1     2     0   102 -7.6539802192e+01  2.2768290438e+01  1.3202977350e+03  1.3337822599e+03  1.7150006303e+02  4.985022e-14 9.
       24     2     3     0     0     0  1.5283424194e+01  1.8391235256e+01  1.5219793429e+02  1.7414773442e+02  8.1187447374e+01  1.457930e-13 9.
        5     1     3     0   101     0  6.1256377998e+01 -4.1159525695e+01  8.1918061216e+00  7.4408306582e+01  4.8000000000e+00 0. 9.
      -24     2     4     0     0     0 -7.9408794799e+01  4.9914647833e+01  1.2728646379e+03  1.2788450728e+03  8.0393438444e+01  5.108380e-14 9.
       -5     1     4     0     0   102  2.8689926076e+00 -2.7146357394e+01  4.7433097053e+01  5.4937187172e+01  4.8000000000e+00 0. 9.
       -3     1     5     0     0   103  1.5733351655e+01 -1.9538231147e+01  1.2488716159e+02  1.2738262817e+02  5.0000000000e-01 0. 9.
        4     1     5     0   103     0 -4.4992746181e-01  3.7929466404e+01  2.7310772700e+01  4.6765106243e+01  1.5000000000e+00 0. 9.
       11     1     7     0     0     0 -2.6772994033e+01  1.3710737493e+01  1.0470744541e+02  1.0894230884e+02  5.1100000000e-04 0. 9.
      -12     1     7     0     0     0 -5.2635800767e+01  3.6203910340e+01  1.1681571925e+03  1.1699027639e+03  0.0000000000e+00 0. 9.
#pdf    2   -2  2.356174e-01  7.819294e-03  1.891798e+02  3.985367e-01  5.984797e-01
</event>
<event>
    12  9999  1.000000e+00  2.132424e+02  7.893521e-03  1.049189e-01
       21    -1     0     0   101   102  0.0000000000e+00  0.0000000000e+00  5.9989906260e+02  5.9989906260e+02  0.0000000000e+00 0. 9.
       21    -1     0     0   102   103  0.0000000000e+00  0.0000000000e+00 -8.3875151772e+01  8.3875151772e+01  0.0000000000e+00 0. 9.
        6     2     1     2   101     0  1.2038889147e+02 -3.5039440973e+01  3.6292535680e+02  4.2040301884e+02  1.7118012745e+02  2.919839e-13 9.
       -6     2     1     2     0   103 -1.2038889147e+02  3.5039440973e+01  1.5309855403e+02  2.6337119553e+02  1.7379289909e+02  8.013031e-14 9.
       24     2     3     0     0     0  1.4669134887e+02 -5.1424587033e+00  2.5171660577e+02  3.0218256748e+02  8.0051594350e+01  1.110557e-13 9.
        5     1     3     0   101     0 -2.6302457402e+01 -2.9896982270e+01  1.1120875103e+02  1.1822045136e+02  4.8000000000e+00 0. 9.
      -24     2     4     0     0     0 -3.1962839410e+01 -2.0074603021e+01  1.3511865944e+01  8.9117908560e+01  7.9591571885e+01  5.191136e-14 9.
       -5     1     4     0     0   103 -8.8426052057e+01  5.5114043994e+01  1.3958668809e+02  1.7425328697e+02  4.8000000000e+00 0. 9.
       -3     1     5     0     0   104  7.3618941989e+01 -2.6018156285e+01  1.8591534407e+02  2.0164686518e+02  5.0000000000e-01 0. 9.
        4     1     5     0   104     0  7.3072406880e+01  2.0875697582e+01  6.5801261693e+01  1.0053570230e+02  1.5000000000e+00 0. 9.
        1     1     7     0   105     0 -2.1063635445e+01  2.7590293341e+01  1.9566961246e+01  3.9848160525e+01  3.3000000000e-01 0. 9.
       -2     1     7     0     0   105 -1.0899203965e+01 -4.7664896362e+01 -6.0550953025e+00  4.9269748035e+01  3.3000000000e-01 0. 9.
#pdf   21   21  9.229216e-02  1.290387e-02  2.121883e+02  9.058841e-01  6.647211e+00
</event>
<event>
    12  9999  1.000000e+00  1.878645e+02  7.882089e-03  1.065446e-01
       21    -1     0     0   101   102  0.0000000000e+00  0.0000000000e+00  1.3737051443e+02  1.3737051443e+02  0.0000000000e+00 0. 9.
       21    -1     0     0   102   103  0.0000000000e+00  0.0000000000e+00 -2.6021797916e+02  2.6021797916e+02  0.0000000000e+00 0. 9.
        6     2     1     2   101     0 -3.6454487449e+01 -6.9757604583e+01 -3.8832017504e+01  1.9117328558e+02  1.6983593991e+02  3.982022e-14 9.
       -6     2     1     2     0   103  3.6454487449e+01  6.9757604583e+01 -8.4015447227e+01  2.0641520801e+02  1.7132889328e+02  1.746081e-14 9.
       24     2     3     0     0     0  4.0710023509e+01 -3.9690036483e+01  1.2831577959e+00  9.9028357930e+01  8.1070118849e+01  5.459858e-15 9.
        5     1     3     0   101     0 -7.7164510958e+01 -3.0067568100e+01 -4.0115175300e+01  9.2144927653e+01  4.8000000000e+00 0. 9.
      -24     2     4     0     0     0  2.8499460378e+01  2.5476286629e+01 -1.1989953552e+02  1.4866726113e+02  7.9150461099e+01  4.054380e-15 9.
       -5     1     4     0     0   103  7.9550270703e+00  4.4281317954e+01  3.5884088295e+01  5.7747946874e+01  4.8000000000e+00 0. 9.
       -1     1     5     0     0   104  1.8802876626e+01 -2.4012426224e+01  4.0960589477e+01  5.1068812135e+01  3.3000000000e-01 0. 9.
        2     1     5     0   104     0  2.1907146884e+01 -1.5677610259e+01 -3.9677431681e+01  4.7959545795e+01  3.3000000000e-01 0. 9.
       15     1     7     0     0     0 -1.5418317892e+01 -1.8762593012e+01 -2.3307198609e+01  3.3706705853e+01  1.7768200000e+00  3.064756e-02 9.
      -16     1     7     0     0     0  4.3917778270e+01  4.4238879641e+01 -9.6592336914e+01  1.1496055528e+02  0.0000000000e+00 0. 9.
#pdf   21   21  2.113393e-02  4.003354e-02  1.871879e+02  4.402291e+00  2.410900e+00
</event>
<event>
    12  9999  1.000000e+00  1.744309e+02  7.875412e-03  1.075204e-01
       21    -1     0     0   101   102  0.0000000000e+00  0.0000000000e+00  3.4976207409e+02  3.4976207409e+02  0.0000000000e+00 0. 9.
       21    -1     0     0   102   103  0.0000000000e+00  0.0000000000e+00 -1.7075960149e+02  1.7075960149e+02  0.0000000000e+00 0. 9.
        6     2     1     2   101     0 -7.8710196769e+00 -2.8527665192e+01  2.7174063016e+02  3.2280820321e+02  1.7171600201e+02  2.944572e-13 9.
       -6     2     1     2     0   103  7.8710196769e+00  2.8527665192e+01 -9.2738157562e+01  1.9771347237e+02  1.7208855469e+02  4.713828e-15 9.
       24     2     3     0     0     0 -1.4766640890e+01 -5.9374655227e+01  2.7264754456e+02  2.9082463118e+02  8.0615626144e+01  4.496838e-14 9.
        5     1     3     0   101     0  6.8956212132e+00  3.0846990035e+01 -9.0691440064e-01  3.1983572031e+01  4.8000000000e+00 0. 9.
      -24     2     4     0     0     0 -1.5838367160e+01  5.9980691280e+01 -1.1314069903e+02  1.5309585732e+02  8.2395306613e+01  1.566443e-14 9.
       -5     1     4     0     0   103  2.3709386837e+01 -3.1453026088e+01  2.0402541467e+01  4.4617615048e+01  4.8000000000e+00 0. 9.
      -15     1     5     0     0     0  1.9334709062e+01 -5.7689064995e+00  1.6178129432e+02  1.6304433611e+02  1.7768200000e+00  1.031347e-01 9.
       16     1     5     0     0     0 -3.4101349952e+01 -5.3605748728e+01  1.1086625024e+02  1.2778029507e+02  0.0000000000e+00 0. 9.
        1     1     7     0   104     0 -4.4751860542e+01  4.5532040755e+01 -4.6350096292e+01  7.8894461679e+01  3.3000000000e-01 0. 9.
       -2     1     7     0     0   104  2.8913493382e+01  1.4448650525e+01 -6.6790602738e+01  7.4201395645e+01  3.3000000000e-01 0. 9.
#pdf   21   21  5.380955e-02  2.627071e-02  1.742474e+02  1.769249e+00  3.629231e+00
</event>
<event>
    12  9999  1.000000e+00  2.671409e+02  7.913932e-03  1.021486e-01
       21    -1     0     0   101   102  0.0000000000e+00  0.0000000000e+00  3.2153090643e+02  3.2153090643e+02  0.0000000000e+00 0. 9.
       21    -1     0     0   102   103  0.0000000000e+00  0.0000000000e+00 -3.4999703919e+02  3.4999703919e+02  0.0000000000e+00 0. 9.
        6     2     1     2   101     0  1.4525650659e+02  1.4637629190e+02  1.8885566964e+02  3.2713720003e+02  1.6978460517e+02  3.446618e-13 9.
       -6     2     1     2     0   103 -1.4525650659e+02 -1.4637629190e+02 -2.1732180241e+02  3.4439074559e+02  1.6985508030e+02  5.489741e-14 9.
       24     2     3     0     0     0  1.1089009473e+02  1.0624499582e+02  2.0778703058e+02  2.7080774400e+02  8.1097298891e+01  5.948062e-15 9.
        5     1     3     0   101     0  3.4366411860e+01  4.0131296086e+01 -1.8931360943e+01  5.6329456032e+01  4.8000000000e+00 0. 9.
      -24     2     4     0     0     0 -5.8042365248e+01 -7.0148446969e+01 -3.1991258968e+01  1.2578735786e+02  8.0680220445e+01  5.792748e-14 9.
       -5     1     4     0     0   103 -8.7214141343e+01 -7.6227844934e+01 -1.8533054344e+02  2.1860338773e+02  4.8000000000e+00 0. 9.
       -3     1     5     0     0   104  1.7388821732e+01  3.7600930045e+01  1.1825102184e+01  4.3084615620e+01  5.0000000000e-01 0. 9.
        4     1     5     0   104     0  9.3501272999e+01  6.8644065773e+01  1.9596192840e+02  2.2772312838e+02  1.5000000000e+00 0. 9.
        3     1     7     0   105     0 -2.8457197241e+01 -3.8402477961e+01 -5.8011367511e+01  7.5167354276e+01  5.0000000000e-01 0. 9.
       -4     1     7     0     0   105 -2.9585168007e+01 -3.1745969008e+01  2.6020108542e+01  5.0620003583e+01  1.5000000000e+00 0. 9.
#pdf   21   21  4.946629e-02  5.384570e-02  2.671185e+02  1.887712e+00  1.717762e+00
</event>
<event>
    12  9999  1.000000e+00  2.176314e+02  7.895362e-03  1.046622e-01
       21    -1     0     0   101   102  0.0000000000e+00  0.0000000000e+00  1.8746152680e+02  1.8746152680e+02  0.0000000000e+00 0. 9.
       21    -1     0     0   102   103  0.0000000000e+00  0.0000000000e+00 -4.4042394923e+02  4.4042394923e+02  0.0000000000e+00 0. 9.
        6     2     1     2   101     0  1.3608457024e+02 -9.2478050269e+00  7.8167868224e+01  2.3218625614e+02  1.7086752109e+02  3.232550e-14 9.
       -6     2     1     2     0   103 -1.3608457024e+02  9.2478050269e+00 -3.3113029066e+02  3.9569921989e+02  1.6830350880e+02  8.422321e-14 9.
       24     2     3     0     0     0  1.6338189199e+02  1.5898374931e+01  6.3253696809e+01  1.9190044412e+02  7.6670394138e+01  2.937126e-13 9.
        5     1     3     0   101     0 -2.7297321752e+01 -2.5146179957e+01  1.4914171415e+01  4.0285812022e+01  4.8000000000e+00 0. 9.
      -24     2     4     0     0     0 -1.4572205496e+02  4.4482191127e+01 -2.4737702575e+02  3.0420062723e+02  9.0161222871e+01  3.922584e-14 9.
       -5     1     4     0     0   103  9.6374847220e+00 -3.5234386100e+01 -8.3753264915e+01  9.1498592665e+01  4.8000000000e+00 0. 9.
      -11     1     5     0     0     0  1.1332859820e+01 -2.1751586760e+01  9.1868461612e+00  2.6190902637e+01  5.1100000000e-04 0. 9.
       12     1     5     0     0     0  1.5204903217e+02  3.7649961691e+01  5.4066850648e+01  1.6570954148e+02  0.0000000000e+00 0. 9.
        1     1     7     0   104     0 -8.6549878182e+01  4.1690672531e-01 -6.7434299263e+01  1.0972032101e+02  3.3000000000e-01 0. 9.
       -2     1     7     0     0   104 -5.9172176778e+01  4.4065284402e+01 -1.7994272648e+02  1.9448030622e+02  3.3000000000e-01 0. 9.
#pdf   21   21  2.884023e-02  6.775753e-02  2.166347e+02  3.304019e+00  1.335974e+00
</event>
<event>
    12  9999  1.000000e+00  2.096543e+02  7.891988e-03  1.051337e-01
       21    -1     0     0   101   102  0.0000000000e+00  0.0000000000e+00  1.0505020101e+02  1.0505020101e+02  0.0000000000e+00 0. 9.
       21    -1     0     0   103   101  0.0000000000e+00  0.0000000000e+00 -5.4538537119e+02  5.4538537119e+02  0.0000000000e+00 0. 9.
        6     2     1     2   103     0  5.0665865856e+01  1.0977413181e+02 -3.7758531169e+02  4.3219068144e+02  1.7204861972e+02  1.989714e-13 9.
       -6     2     1     2     0   102 -5.0665865856e+01 -1.0977413181e+02 -6.2749858494e+01  2.1824489076e+02  1.7051656115e+02  6.519832e-13 9.
       24     2     3     0     0     0  1.0067447063e+02  8.2742982134e+01 -2.8788817184e+02  3.2588846838e+02  7.9636324696e+01  9.712958e-14 9.
        5     1     3     0   103     0 -5.0008604778e+01  2.7031149673e+01 -8.9697139852e+01  1.0630221306e+02  4.8000000000e+00 0. 9.
      -24     2     4     0     0     0 -9.2219656730e+01 -1.1114527829e+02 -3.9061518722e+01  1.7015357117e+02  8.1047501892e+01  9.397113e-14 9.
       -5     1     4     0     0   102  4.1553790875e+01  1.3711464859e+00 -2.3688339773e+01  4.8091319590e+01  4.8000000000e+00 0. 9.
      -15     1     5     0     0     0  5.5745508961e+01  8.7316514587e+01 -2.3162660956e+02  2.5374352964e+02  1.7768200000e+00  4.198434e-02 9.
       16     1     5     0     0     0  4.4928961672e+01 -4.5735324536e+00 -5.6261562273e+01  7.2144938738e+01  0.0000000000e+00 0. 9.
        1     1     7     0   104     0 -7.5438577709e+01 -3.0195657183e+01 -7.2791278416e+00  8.1583401018e+01  3.3000000000e-01 0. 9.
       -2     1     7     0     0   104 -1.6781079022e+01 -8.0949621109e+01 -3.1782390880e+01  8.8570170152e+01  3.3000000000e-01 0. 9.
#pdf   21   21  1.616157e-02  8.390544e-02  2.090294e+02  5.528174e+00  1.027784e+00
</event>
<event>
    12  9999  1.000000e+00  2.265906e+02  7.899010e-03  1.041576e-01
       21    -1     0     0   101   102  0.0000000000e+00  0.0000000000e+00  1.7477008564e+02  1.7477008564e+02  0.0000000000e+00 0. 9.
       21    -1     0     0   102   103  0.0000000000e+00  0.0000000000e+00 -3.2750876788e+02  3.2750876788e+02  0.0000000000e+00 0. 9.
        6     2     1     2   101     0 -5.1983753219e+01  1.3995898857e+02  4.1725686090e+00  2.2681633002e+02  1.7069683112e+02  4.390531e-14 9.
       -6     2     1     2     0   103  5.1983753219e+01 -1.3995898857e+02 -1.5691125085e+02  2.7546252351e+02  1.7019880179e+02  2.753097e-14 9.
       24     2     3     0     0     0 -2.1865970567e+01  1.1178333887e+02 -5.7901272006e+01  1.5213601295e+02  8.2578287829e+01  9.355477e-14 9.
        5     1     3     0   101     0 -3.0117782652e+01  2.8175649701e+01  6.2073840615e+01  7.4680317063e+01  4.8000000000e+00 0. 9.
      -24     2     4     0     0     0  9.7574152435e+01 -1.1810695295e+02 -1.0224226895e+02  2.0084527655e+02  8.0096042304e+01  2.396553e-14 9.
       -5     1     4     0     0   103 -4.5590399216e+01 -2.1852035616e+01 -5.4668981905e+01  7.4617246959e+01  4.8000000000e+00 0. 9.
       -3     1     5     0     0   104  1.3707672545e+01  9.9556550674e+01 -2.8767306631e+01  1.0453332004e+02  5.0000000000e-01 0. 9.
        4     1     5     0   104     0 -3.5573643112e+01  1.2226788192e+01 -2.9133965375e+01  4.7602692910e+01  1.5000000000e+00 0. 9.
       15     1     7     0     0     0  8.4301802694e+01 -5.1244939619e+01 -3.3934814760e+01  1.0434350251e+02  1.7768200000e+00  4.381126e-02 9.
      -16     1     7     0     0     0  1.3272349740e+01 -6.6862013332e+01 -6.8307454189e+01  9.6501774036e+01  0.0000000000e+00 0. 9.
#pdf   21   21  2.688771e-02  5.038596e-02  2.264033e+02  3.523126e+00  1.869764e+00
</event>
<event>
    12  9999  1.000000e+00  1.764976e+02  7.876471e-03  1.073642e-01
       21    -1     0     0   101   102  0.0000000000e+00  0.0000000000e+00  3.1534869655e+02  3.1534869655e+02  0.0000000000e+00 0. 9.
       21    -1     0     0   102   103  0.0000000000e+00  0.0000000000e+00 -1.1345788258e+02  1.1345788258e+02  0.0000000000e+00 0. 9.
        6     2     1     2   101     0  3.1005533101e+01  3.4608939929e+01  1.7815576197e+02  2.5092908725e+02  1.7048991025e+02  2.295785e-14 9.
       -6     2     1     2     0   103 -3.1005533101e+01 -3.4608939929e+01  2.3735051994e+01  1.7787749188e+02  1.7005272012e+02  5.280331e-14 9.
       24     2     3     0     0     0 -4.5660661479e+01  2.4415161265e+01  1.1432655322e+02  1.5053572888e+02  8.3123094212e+01  4.362828e-14 9.
        5     1     3     0   101     0  7.6666194580e+01  1.0193778664e+01  6.3829208749e+01  1.0039335837e+02  4.8000000000e+00 0. 9.
      -24     2     4     0     0     0  1.3441505119e+01  3.1295012528e+01 -1.5927166975e+01  8.8911196190e+01  8.0569685932e+01  2.281755e-13 9.
       -5     1     4     0     0   103 -4.4447038220e+01 -6.5903952456e+01  3.9662218969e+01  8.8966295694e+01  4.8000000000e+00 0. 9.
      -11     1     5     0     0     0 -2.5444646123e+01  3.1266707837e+01  1.2150334926e+02  1.2801601821e+02  5.1100000000e-04 0. 9.
       12     1     5     0     0     0 -2.0216015356e+01 -6.8515465718e+00 -7.1767960423e+00  2.2519710671e+01  0.0000000000e+00 0. 9.
       11     1     7     0     0     0  2.7245961570e+00  4.5917239383e+01 -3.8482920436e+01  5.9972922743e+01  5.1100000000e-04 0. 9.
      -12     1     7     0     0     0  1.0716908962e+01 -1.4622226856e+01  2.2555753461e+01  2.8938273447e+01  0.0000000000e+00 0. 9.
#pdf   21   21  4.851518e-02  1.745506e-02  1.762868e+02  1.978680e+00  5.191381e+00
</event>
<event>
    12  9999  1.000000e+00  2.133073e+02  7.893548e-03  1.049151e-01
       21    -1     0     0   101   102  0.0000000000e+00  0.0000000000e+00  9.2659665892e+01  9.2659665892e+01  0.0000000000e+00 0. 9.
       21    -1     0     0   103   101  0.0000000000e+00  0.0000000000e+00 -1.0306521535e+03  1.0306521535e+03  0.0000000000e+00 0. 9.
        6     2     1     2   103     0  9.8528892585e+01  8.1232739949e+01 -8.7539312912e+02  9.0100609148e+02  1.7085709138e+02  8.148715e-15 9.
       -6     2     1     2     0   102 -9.8528892585e+01 -8.1232739949e+01 -6.2599358445e+01  2.2230572786e+02  1.7086385296e+02  1.769088e-14 9.
       24     2     3     0     0     0  4.4161229925e+01 -1.6069640211e+01 -3.0388515748e+02  3.1871063592e+02  8.3796377884e+01  3.156633e-14 9.
        5     1     3     0   103     0  5.4367662660e+01  9.7302380160e+01 -5.7150797164e+02  5.8229545557e+02  4.8000000000e+00 0. 9.
      -24     2     4     0     0     0 -9.9631713602e+01 -5.8346793904e+01  1.4592667470e+01  1.4164203339e+02  8.0738423103e+01  1.071403e-13 9.
       -5     1     4     0     0   102  1.1028210169e+00 -2.2885946045e+01 -7.7192025915e+01  8.0663694470e+01  4.8000000000e+00 0. 9.
       -1     1     5     0     0   104  4.7944176821e+01 -1.8964730796e+01 -3.0807393379e+02  3.1235870836e+02  3.3000000000e-01 0. 9.
        2     1     5     0   104     0 -3.7829468956e+00  2.8950905852e+00  4.1887763138e+00  6.3519275593e+00  3.3000000000e-01 0. 9.
        1     1     7     0   105     0 -7.7011446972e+01 -1.1364761628e+01 -1.8327985503e+01  7.9974650510e+01  3.3000000000e-01 0. 9.
       -2     1     7     0     0   105 -2.2620266630e+01 -4.6982032276e+01  3.2920652973e+01  6.1667382881e+01  3.3000000000e-01 0. 9.
#pdf   21   21  1.425533e-02  1.585619e-01  2.133046e+02  6.131390e+00  4.029300e-01
</event>
<event>
    12  9999  1.000000e+00  1.806431e+02  7.878560e-03  1.070579e-01
       21    -1     0     0   101   102  0.0000000000e+00  0.0000000000e+00  4.5375102524e+01  4.5375102524e+01  0.0000000000e+00 0. 9.
       21    -1     0     0   102   103  0.0000000000e+00  0.0000000000e+00 -8.7376629727e+02  8.7376629727e+02  0.0000000000e+00 0. 9.
        6     2     1     2   101     0 -1.2183511766e+01  5.7080805074e+01 -2.2044739212e+02  2.8486193992e+02  1.7071208467e+02  1.406107e-13 9.
       -6     2     1     2     0   103  1.2183511766e+01 -5.7080805074e+01 -6.0794380262e+02  6.3427945988e+02  1.7119611504e+02  2.072209e-13 9.
       24     2     3     0     0     0 -5.4174779827e+01 -1.3763583960e+01 -1.1400539456e+02  1.5019519236e+02  8.0231058875e+01  2.970679e-15 9.
        5     1     3     0   101     0  4.1991268061e+01  7.0844389035e+01 -1.0644199756e+02  1.3466674755e+02  4.8000000000e+00 0. 9.
      -24     2     4     0     0     0 -3.1326612411e+01 -6.8425992140e+01 -5.5064582723e+02  5.6128670572e+02  7.8539581888e+01  4.408950e-15 9.
       -5     1     4     0     0   103  4.3510124177e+01  1.1345187065e+01 -5.7297975392e+01  7.2992754157e+01  4.8000000000e+00 0. 9.
      -13     1     5     0     0     0  6.6529149258e+00 -8.4587612808e+00 -7.9170315344e+01  7.9898447514e+01  1.0566000000e-01  1.014880e+05 9.
       14     1     5     0     0     0 -6.0827694753e+01 -5.3048226796e+00 -3.4835079212e+01  7.0296744849e+01  0.0000000000e+00 0. 9.
        3     1     7     0   104     0  1.9865815043e+01 -3.5569177123e+01 -1.2923407828e+02  1.3550466397e+02  5.0000000000e-01 0. 9.
       -4     1     7     0     0   104 -5.1192427454e+01 -3.2856815016e+01 -4.2141174895e+02  4.2578204175e+02  1.5000000000e+00 0. 9.
#pdf   21   21  6.980785e-03  1.344256e-01  1.804142e+02  1.059026e+01  5.383923e-01
</event>
<event>
    12  9999  1.000000e+00  3.101905e+02  7.927524e-03  1.003921e-01
       21    -1     0     0   101   102  0.0000000000e+00  0.0000000000e+00  2.0231914175e+02  2.0231914175e+02  0.0000000000e+00 0. 9.
       21    -1     0     0   102   103  0.0000000000e+00  0.0000000000e+00 -5.9547832598e+02  5.9547832598e+02  0.0000000000e+00 0. 9.
        6     2     1     2   101     0  1.5870613709e+00 -2.5869873715e+02 -1.7582984546e+01  3.1068708413e+02  1.7114247729e+02  7.071081e-14 9.
       -6     2     1     2     0   103 -1.5870613709e+00  2.5869873715e+02 -3.7557619968e+02  4.8711038360e+02  1.7114756405e+02  2.706704e-13 9.
       24     2     3     0     0     0  3.2610980091e+01 -2.4650834578e+02 -4.8741907173e+01  2.6480672195e+02  7.6921946899e+01  1.193098e-13 9.
        5     1     3     0   101     0 -3.1023918720e+01 -1.2190391376e+01  3.1158922627e+01  4.5880362182e+01  4.8000000000e+00 0. 9.
      -24     2     4     0     0     0 -3.8687395696e+01  1.0871077726e+02 -2.5093008403e+02  2.8853415877e+02  8.3494347294e+01  9.954483e-14 9.
       -5     1     4     0     0   103  3.7100334325e+01  1.4998795990e+02 -1.2464611565e+02  1.9857622483e+02  4.8000000000e+00 0. 9.
      -15     1     5     0     0     0  4.8359426062e+01 -8.8969679596e+01 -2.8372463408e+01  1.0517790522e+02  1.7768200000e+00  4.457313e-01 9.
       16     1     5     0     0     0 -1.5748445971e+01 -1.5753866618e+02 -2.0369443766e+01  1.5962881673e+02  0.0000000000e+00 0. 9.
        1     1     7     0   104     0 -3.5450174483e+01  2.1755484126e+00 -5.4554426939e+01  6.5097943749e+01  3.3000000000e-01 0. 9.
       -2     1     7     0     0   104 -3.2372212124e+00  1.0653522884e+02 -1.9637565709e+02  2.2343621502e+02  3.3000000000e-01 0. 9.
#pdf   21   21  3.112602e-02  9.161205e-02  3.101891e+02  3.026491e+00  8.811760e-01
</event>
<event>
    12  9999  1.000000e+00  2.016060e+02  7.888454e-03  1.056326e-01
       21    -1     0     0   101   102  0.0000000000e+00  0.0000000000e+00  1.1259425483e+02  1.1259425483e+02  0.0000000000e+00 0. 9.
       21    -1     0     0   103   101  0.0000000000e+00  0.0000000000e+00 -6.4040367970e+02  6.4040367970e+02  0.0000000000e+00 0. 9.
        6     2     1     2   103     0 -6.9597004701e+01 -7.0496928852e+01 -5.1562261242e+02  5.5520822232e+02  1.8048803742e+02  1.370215e-13 9.
       -6     2     1     2     0   102  6.9597004701e+01  7.0496928852e+01 -1.2186812449e+01  1.9778971220e+02  1.7075916320e+02  6.280898e-15 9.
       24     2     3     0     0     0 -6.8984023425e+01 -1.1755321154e+02 -4.0878827633e+02  4.3836950933e+02  8.0513469748e+01  1.333106e-13 9.
        5     1     3     0   103     0 -6.1298127603e-01  4.7056282684e+01 -1.0683433609e+02  1.1683871299e+02  4.8000000000e+00 0. 9.
      -24     2     4     0     0     0  1.0319277354e+02  5.7199520042e+01  3.2457503456e+01  1.4015593992e+02  6.8334942454e+01  6.958974e-15 9.
       -5     1     4     0     0   102 -3.3595768841e+01  1.3297408810e+01 -4.4644315905e+01  5.7633772284e+01  4.8000000000e+00 0. 9.
       -3     1     5     0     0   104 -6.2330935623e+01 -1.1889881401e+02 -2.9208221177e+02  3.2145659418e+02  5.0000000000e-01 0. 9.
        4     1     5     0   104     0 -6.6530878023e+00  1.3456024701e+00 -1.1670606456e+02  1.1691291515e+02  1.5000000000e+00 0. 9.
       13     1     7     0     0     0  5.7032613743e+01  6.6825942888e+01  1.1678845885e+01  8.8627491663e+01  1.0566000000e-01  5.839918e+05 9.
      -14     1     7     0     0     0  4.6160159799e+01 -9.6264228454e+00  2.0778657570e+01  5.1528448258e+01  0.0000000000e+00 0. 9.
#pdf   21   21  1.732219e-02  9.852364e-02  1.974139e+02  5.219043e+00  8.357028e-01
</event>
<event>
    12  9999  1.000000e+00  2.220678e+02  7.897186e-03  1.044092e-01
       21    -1     0     0   101   102  0.0000000000e+00  0.0000000000e+00  2.9645812839e+02  2.9645812839e+02  0.0000000000e+00 0. 9.
       21    -1     0     0   102   103  0.0000000000e+00  0.0000000000e+00 -1.6854479575e+02  1.6854479575e+02  0.0000000000e+00 0. 9.
        6     2     1     2   101     0  1.4300555900e+02  8.3011751381e+00  3.7304917422e+01  2.2487625399e+02  1.6928725094e+02  1.085929e-13 9.
       -6     2     1     2     0   103 -1.4300555900e+02 -8.3011751381e+00  9.0608415221e+01  2.4012667015e+02  1.7009242604e+02  6.587893e-15 9.
       24     2     3     0     0     0  1.3060232872e+02  5.0574037187e+01 -8.0001005513e+00  1.6150102507e+02  8.0024233738e+01  1.360310e-13 9.
        5     1     3     0   101     0  1.2403230281e+01 -4.2272862049e+01  4.5305017973e+01  6.3375228921e+01  4.8000000000e+00 0. 9.
      -24     2     4     0     0     0 -7.9956253855e+01 -6.6283163809e+01  7.6539506303e+01  1.5318933590e+02  8.2596708609e+01  2.950059e-14 9.
       -5     1     4     0     0   103 -6.3049305143e+01  5.7981988670e+01  1.4068908918e+01  8.6937334255e+01  4.8000000000e+00 0. 9.
       -3     1     5     0     0   104  1.2350849132e+02  3.8698448708e+01  1.9298434761e+01  1.3086098328e+02  5.0000000000e-01 0. 9.
        4     1     5     0   104     0  7.0938373998e+00  1.1875588479e+01 -2.7298535312e+01  3.0640041791e+01  1.5000000000e+00 0. 9.
        1     1     7     0   105     0 -8.7884297932e+00 -4.6182110574e+01  6.2020663308e+01  7.7824773770e+01  3.3000000000e-01 0. 9.
       -2     1     7     0     0   105 -7.1167824062e+01 -2.0101053235e+01  1.4518842995e+01  7.5364562128e+01  3.3000000000e-01 0. 9.
#pdf   21   21  4.560894e-02  2.592997e-02  2.217604e+02  2.084903e+00  3.646207e+00
</event>
<event>
    12  9999  1.000000e+00  4.419580e+02  7.959917e-03  9.646468e-02
       21    -1     0     0   101   102  0.0000000000e+00  0.0000000000e+00  7.0968566907e+02  7.0968566907e+02  0.0000000000e+00 0. 9.
       21    -1     0     0   103   101  0.0000000000e+00  0.0000000000e+00 -2.7599416007e+02  2.7599416007e+02  0.0000000000e+00 0. 9.
        6     2     1     2   103     0  3.6781418434e+02 -1.7647698401e+02  1.9094148619e+02  4.8149002125e+02  1.7012521663e+02  1.237184e-14 9.
       -6     2     1     2     0   102 -3.6781418434e+02  1.7647698401e+02  2.4275002282e+02  5.0418980789e+02  1.6984813427e+02  1.216375e-15 9.
       24     2     3     0     0     0  2.8977432693e+02 -1.2935479759e+02  2.0925295636e+02  3.8838218196e+02  7.9700033343e+01  1.232134e-13 9.
        5     1     3     0   103     0  7.8039857404e+01 -4.7122186423e+01 -1.8311470169e+01  9.3107839287e+01  4.8000000000e+00 0. 9.
      -24     2     4     0     0     0 -1.5074303640e+02  1.1003560186e+02  5.7505755442e+01  2.1114916374e+02  8.0285495186e+01  2.579483e-14 9.
       -5     1     4     0     0   102 -2.1707114793e+02  6.6441382147e+01  1.8524426738e+02  2.9304064415e+02  4.8000000000e+00 0. 9.
       -3     1     5     0     0   104  7.7270720086e+01 -1.0658486521e+01  8.4011414887e+01  1.1464089737e+02  5.0000000000e-01 0. 9.
        4     1     5     0   104     0  2.1250360685e+02 -1.1869631107e+02  1.2524154147e+02  2.7374128460e+02  1.5000000000e+00 0. 9.
        1     1     7     0   105     0 -1.5457429671e+02  1.1658598931e+02  4.8941825714e+01  1.9970207137e+02  3.3000000000e-01 0. 9.
       -2     1     7     0     0   105  3.8312603045e+00 -6.5503874484e+00  8.5639297285e+00  1.1447092366e+01  3.3000000000e-01 0. 9.
#pdf   21   21  1.091824e-01  4.246064e-02  4.419047e+02  6.632834e-01  2.163004e+00
</event>
<event>
    12  9999  1.000000e+00  2.016816e+02  7.888488e-03  1.056278e-01
       21    -1     0     0   101   102  0.0000000000e+00  0.0000000000e+00  9.2180429837e+02  9.2180429837e+02  0.0000000000e+00 0. 9.
       21    -1     0     0   103   101  0.0000000000e+00  0.0000000000e+00 -6.4364482803e+01  6.4364482803e+01  0.0000000000e+00 0. 9.
        6     2     1     2   103     0 -4.1462789455e+01 -9.4162407751e+01  1.5614685717e+02  2.5717322331e+02  1.7655170303e+02  2.375938e-13 9.
       -6     2     1     2     0   102  4.1462789455e+01  9.4162407751e+01  7.0129295840e+02  7.2899555786e+02  1.7040242937e+02  2.779519e-14 9.
       24     2     3     0     0     0 -7.3639189542e+01 -1.7146300084e+01  4.6472524013e+01  1.1926636737e+02  7.9674619893e+01  7.654838e-14 9.
        5     1     3     0   103     0  3.2176400087e+01 -7.7016107667e+01  1.0967433315e+02  1.3790685594e+02  4.8000000000e+00 0. 9.
      -24     2     4     0     0     0  9.9834135941e+00  1.2890101957e+02  5.3593968352e+02  5.5705816295e+02  7.9795433079e+01  7.964665e-14 9.
       -5     1     4     0     0   102  3.1479375861e+01 -3.4738611820e+01  1.6535327488e+02  1.7193739491e+02  4.8000000000e+00 0. 9.
       -1     1     5     0     0   104 -4.9776675359e+01 -1.5977368514e+01 -1.4089985160e+01  5.4144531545e+01  3.3000000000e-01 0. 9.
        4     1     5     0   104     0 -2.3862514183e+01 -1.1689315698e+00  6.0562509174e+01  6.5121835828e+01  1.5000000000e+00 0. 9.
        3     1     7     0   105     0  1.3811182770e+00  2.7215604875e+01  2.8414581206e+01  3.9373024541e+01  5.0000000000e-01 0. 9.
       -4     1     7     0     0   105  8.6022953171e+00  1.0168541470e+02  5.0752510231e+02  5.1768513840e+02  1.5000000000e+00 0. 9.
#pdf   21   21  1.418160e-01  9.902228e-03  1.990545e+02  4.887633e-01  8.179181e+00
</event>
<event>
    12  9999  1.000000e+00  2.357440e+02  7.902594e-03  1.036671e-01
       21    -1     0     0   101   102  0.0000000000e+00  0.0000000000e+00  3.3474211232e+01  3.3474211232e+01  0.0000000000e+00 0. 9.
       21    -1     0     0   103   101  0.0000000000e+00  0.0000000000e+00 -1.8343926037e+03  1.8343926037e+03  0.0000000000e+00 0. 9.
        6     2     1     2   103     0  7.9966712872e+00  1.6222388894e+02 -1.1925649202e+03  1.2158897271e+03  1.7261576629e+02  4.883914e-14 9.
       -6     2     1     2     0   102 -7.9966712872e+00 -1.6222388894e+02 -6.0835347232e+02  6.5197708784e+02  1.6911427763e+02  3.882685e-13 9.
       24     2     3     0     0     0 -2.7089056392e+01  5.9883751230e+01 -8.5607463552e+02  8.6240243775e+02  8.0958646370e+01  1.237555e-14 9.
        5     1     3     0   103     0  3.5085727679e+01  1.0234013771e+02 -3.3649028466e+02  3.5348728936e+02  4.8000000000e+00 0. 9.
      -24     2     4     0     0     0  2.3153180993e+01 -1.6247012052e+02 -3.8250175357e+02  4.2393671249e+02  8.0511706393e+01  1.848565e-13 9.
       -5     1     4     0     0   102 -3.1149852280e+01  2.4623157950e-01 -2.2585171875e+02  2.2804037535e+02  4.8000000000e+00 0. 9.
       -1     1     5     0     0   104  2.5094348511e+01  1.6954815216e+01 -4.2351743623e+02  4.2459901057e+02  3.3000000000e-01 0. 9.
        2     1     5     0   104     0 -5.2183404903e+01  4.2928936014e+01 -4.3255719929e+02  4.3780342718e+02  3.3000000000e-01 0. 9.
        3     1     7     0   105     0 -2.6366528938e+00 -6.0929457680e+01 -2.3645537756e+02  2.4419407513e+02  5.0000000000e-01 0. 9.
       -4     1     7     0     0   105  2.5789833887e+01 -1.0154066284e+02 -1.4604637601e+02  1.7974263737e+02  1.5000000000e+00 0. 9.
#pdf   21   21  5.149879e-03  2.822142e-01  2.344785e+02  1.326545e+01  1.164081e-01
</event>
<event>
    12  9999  1.000000e+00  2.464632e+02  7.906623e-03  1.031218e-01
        1    -1     0     0   101     0  0.0000000000e+00  0.0000000000e+00  7.0698681497e+02  7.0698681497e+02  0.0000000000e+00 0. 9.
       -1    -1     0     0     0   102  0.0000000000e+00  0.0000000000e+00 -9.8584955373e+01  9.8584955373e+01  0.0000000000e+00 0. 9.
        6     2     1     2   101     0  2.0554629719e+01  1.7529537050e+02  1.5854199129e+02  2.9203700163e+02  1.7029118473e+02  4.133170e-15 9.
       -6     2     1     2     0   102 -2.0554629719e+01 -1.7529537050e+02  4.4985986830e+02  5.1353476871e+02  1.7376161210e+02  5.852303e-13 9.
       24     2     3     0     0     0  7.7550575771e+01  1.0735650213e+02  1.1385409283e+02  1.9261730554e+02  8.1235223814e+01  7.812315e-14 9.
        5     1     3     0   101     0 -5.6995946052e+01  6.7938868369e+01  4.4687898464e+01  9.9419696091e+01  4.8000000000e+00 0. 9.
      -24     2     4     0     0     0 -7.0902629426e+01 -1.0801335586e+02  3.5799890189e+02  3.8894236236e+02  8.0117910496e+01  1.137553e-14 9.
       -5     1     4     0     0   102  5.0347999707e+01 -6.7282014639e+01  9.1860966417e+01  1.2459240635e+02  4.8000000000e+00 0. 9.
      -11     1     5     0     0     0  5.6282055675e+01  5.9908208459e+01  1.8877472941e+01  8.4338734972e+01  5.1100000000e-04 0. 9.
       12     1     5     0     0     0  2.1268520096e+01  4.7448293674e+01  9.4976619887e+01  1.0827857057e+02  0.0000000000e+00 0. 9.
        3     1     7     0   103     0 -2.1667961253e+01 -8.9303538202e+01  2.8096730734e+02  2.9561376875e+02  5.0000000000e-01 0. 9.
       -4     1     7     0     0   103 -4.9234668173e+01 -1.8709817662e+01  7.7031594542e+01  9.3328593607e+01  1.5000000000e+00 0. 9.
#pdf    1   -1  1.087672e-01  1.516692e-02  2.452551e+02  3.333961e-01  4.353166e-01
</event>
<event>
    12  9999  1.000000e+00  1.919216e+02  7.884015e-03  1.062669e-01
       21    -1     0     0   101   102  0.0000000000e+00  0.0000000000e+00  3.6751974445e+02  3.6751974445e+02  0.0000000000e+00 0. 9.
       21    -1     0     0   103   101  0.0000000000e+00  0.0000000000e+00 -1.0096720496e+02  1.0096720496e+02  0.0000000000e+00 0. 9.
        6     2     1     2   103     0  8.3902344080e+01 -2.6945819751e+01  1.1319658400e+02  2.2285672092e+02  1.7054609607e+02  2.130088e-13 9.
       -6     2     1     2     0   102 -8.3902344080e+01  2.6945819751e+01  1.5335595550e+02  2.4563022849e+02  1.7044201219e+02  8.337266e-14 9.
       24     2     3     0     0     0  2.5888186867e+01 -8.8965514401e+00 -1.1030486373e+01  8.4484673394e+01  7.9162122016e+01  1.347634e-13 9.
        5     1     3     0   103     0  5.8014157213e+01 -1.8049268310e+01  1.2422707037e+02  1.3837204752e+02  4.8000000000e+00 0. 9.
      -24     2     4     0     0     0 -9.6073237410e+01  6.3737990292e+01  7.7205822552e+01  1.6005174285e+02  7.9769812586e+01  1.859339e-15 9.
       -5     1     4     0     0   102  1.2170893330e+01 -3.6792170541e+01  7.6150132947e+01  8.5578485646e+01  4.8000000000e+00 0. 9.
       -3     1     5     0     0   104  2.0494737809e+01 -4.0059569807e+01 -2.3121068663e+01  5.0592857471e+01  5.0000000000e-01 0. 9.
        4     1     5     0   104     0  5.3934490575e+00  3.1163018367e+01  1.2090582290e+01  3.3891815923e+01  1.5000000000e+00 0. 9.
       15     1     7     0     0     0 -5.7889443824e+01  7.7282722140e+01  3.8337785019e+01  1.0390740925e+02  1.7768200000e+00  6.118208e-02 9.
      -16     1     7     0     0     0 -3.8183793586e+01 -1.3544731849e+01  3.8868037533e+01  5.6144333598e+01  0.0000000000e+00 0. 9.
#pdf   21   21  5.654150e-02  1.553342e-02  1.918754e+02  1.663765e+00  5.717701e+00
</event>
<event>
    12  9999  1.000000e+00  2.193129e+02  7.896057e-03  1.045656e-01
       21    -1     0     0   101   102  0.0000000000e+00  0.0000000000e+00  1.1360871646e+03  1.1360871646e+03  0.0000000000e+00 0. 9.
       21    -1     0     0   103   101  0.0000000000e+00  0.0000000000e+00 -4.2360038554e+01  4.2360038554e+01  0.0000000000e+00 0. 9.
        6     2     1     2   103     0 -1.3636127455e+02  2.2022784185e+01  5.6244888130e+02  6.0397178892e+02  1.7132944147e+02  8.934796e-14 9.
       -6     2     1     2     0   102  1.3636127455e+02 -2.2022784185e+01  5.3127824476e+02  5.7447541425e+02  1.6936950139e+02  2.803114e-13 9.
       24     2     3     0     0     0 -1.6129217519e+02  1.8294977364e+01  5.3197738351e+02  5.6413463882e+02  9.4329646334e+01  5.303285e-14 9.
        5     1     3     0   103     0  2.4930900639e+01  3.7278068214e+00  3.0471497793e+01  3.9837150101e+01  4.8000000000e+00 0. 9.
      -24     2     4     0     0     0  3.8433822086e+01 -6.7959465457e+01  2.6426811317e+02  2.8634798584e+02  7.7858112793e+01  4.636050e-14 9.
       -5     1     4     0     0   102  9.7927452466e+01  4.5936681272e+01  2.6701013159e+02  2.8812742841e+02  4.8000000000e+00 0. 9.
       -1     1     5     0     0   104 -7.7579702073e+01 -3.0348177214e+01  3.2695535013e+02  3.3740114391e+02  3.3000000000e-01 0. 9.
        2     1     5     0   104     0 -8.3712473118e+01  4.8643154578e+01  2.0502203338e+02  2.2673349491e+02  3.3000000000e-01 0. 9.
       13     1     7     0     0     0  5.1839177276e+01 -2.7480496364e+01  2.0568364772e+02  2.1388841035e+02  1.0566000000e-01  1.420122e+05 9.
      -14     1     7     0     0     0 -1.3405355190e+01 -4.0478969093e+01  5.8584465455e+01  7.2459575483e+01  0.0000000000e+00 0. 9.
#pdf   21   21  1.747826e-01  6.516929e-03  2.185530e+02  3.386139e-01  1.118863e+01
</event>
<event>
    12  9999  1.000000e+00  1.973542e+02  7.886531e-03  1.059063e-01
       21    -1     0     0   101   102  0.0000000000e+00  0.0000000000e+00  3.3273047206e+01  3.3273047206e+01  0.0000000000e+00 0. 9.
       21    -1     0     0   102   103  0.0000000000e+00  0.0000000000e+00 -1.6313854653e+03  1.6313854653e+03  0.0000000000e+00 0. 9.
        6     2     1     2   101     0 -9.6771566097e+01  1.1451757381e+00 -3.5692689407e+02  4.0789331840e+02  1.7208748954e+02  2.702176e-14 9.
       -6     2     1     2     0   103  9.6771566097e+01 -1.1451757381e+00 -1.2411855241e+03  1.2567651941e+03  1.7190462653e+02  1.962034e-13 9.
       24     2     3     0     0     0 -3.7154867228e+01  4.0145578819e+01 -9.2906376182e+01  1.3438818849e+02  8.0227419335e+01  7.915353e-14 9.
        5     1     3     0   101     0 -5.9616698869e+01 -3.9000403081e+01 -2.6402051788e+02  2.7350512991e+02  4.8000000000e+00 0. 9.
      -24     2     4     0     0     0 -1.4225165366e+01  6.3005866809e+00 -3.9965453589e+02  4.0789938741e+02  8.0100620923e+01  8.086018e-14 9.
       -5     1     4     0     0   103  1.1099673146e+02 -7.4457624190e+00 -8.4153098818e+02  8.4886580674e+02  4.8000000000e+00 0. 9.
      -11     1     5     0     0     0 -4.1915308834e+01  5.0259186731e-01 -8.3403688208e+01  9.3345170845e+01  5.1100000000e-04 0. 9.
       12     1     5     0     0     0  4.7604416065e+00  3.9642986951e+01 -9.5026879747e+00  4.1043017646e+01  0.0000000000e+00 0. 9.
        1     1     7     0   104     0  5.5250484072e+00  2.4908173443e+01 -3.5304188923e+02  3.5396274905e+02  3.3000000000e-01 0. 9.
       -2     1     7     0     0   104 -1.9750213773e+01 -1.8607586762e+01 -4.6612646657e+01  5.3936638360e+01  3.3000000000e-01 0. 9.
#pdf   21   21  5.118930e-03  2.509824e-01  1.972745e+02  1.324339e+01  1.638509e-01
</event>
<event>
    12  9999  1.000000e+00  2.305664e+02  7.900584e-03  1.039416e-01
        1    -1     0     0   101     0  0.0000000000e+00  0.0000000000e+00  1.2756278614e+03  1.2756278614e+03  0.0000000000e+00 0. 9.
       -1    -1     0     0     0   102  0.0000000000e+00  0.0000000000e+00 -4.4558140496e+01  4.4558140496e+01  0.0000000000e+00 0. 9.
        6     2     1     2   101     0  1.3713350371e+02 -1.0655371627e+02  7.4455971796e+02  7.7561151793e+02  1.3055558527e+02  3.907198e-14 9.
       -6     2     1     2     0   102 -1.3713350371e+02  1.0655371627e+02  4.8651000293e+02  5.4457448395e+02  1.7236616063e+02  9.434439e-13 9.
       24     2     3     0     0     0  8.8568619547e+01 -6.6296115925e+01  3.4858679361e+02  3.7461673096e+02  8.1150274672e+01  2.776285e-13 9.
        5     1     3     0   101     0  4.8564884167e+01 -4.0257600345e+01  3.9597292435e+02  4.0099478697e+02  4.8000000000e+00 0. 9.
      -24     2     4     0     0     0 -1.1515000372e+01  5.6487086217e+01  1.3171350982e+02  1.6485054825e+02  8.0646564991e+01  5.324848e-15 9.
       -5     1     4     0     0   102 -1.2561850334e+02  5.0066630052e+01  3.5479649310e+02  3.7972393570e+02  4.8000000000e+00 0. 9.
       -1     1     5     0     0   103 -1.5727100114e+00 -4.1273103631e+01  7.7207077805e+01  8.7561317163e+01  3.3000000000e-01 0. 9.
        4     1     5     0   103     0  9.0141329559e+01 -2.5023012294e+01  2.7137971581e+02  2.8705541380e+02  1.5000000000e+00 0. 9.
        3     1     7     0   104     0 -2.1816774775e+01  7.3712360621e+01  1.1668351470e+02  1.3973108592e+02  5.0000000000e-01 0. 9.
       -4     1     7     0     0   104  1.0301774403e+01 -1.7225274404e+01  1.5029995117e+01  2.5119462322e+01  1.5000000000e+00 0. 9.
#pdf    1   -1  1.962504e-01  6.855099e-03  2.172649e+02  2.231143e-01  6.693860e-01
</event>
<event>
    12  9999  1.000000e+00  1.979583e+02  7.886807e-03  1.058670e-01
       21    -1     0     0   101   102  0.0000000000e+00  0.0000000000e+00  2.7314703010e+02  2.7314703010e+02  0.0000000000e+00 0. 9.
       21    -1     0     0   102   103  0.0000000000e+00  0.0000000000e+00 -1.5002618607e+02  1.5002618607e+02  0.0000000000e+00 0. 9.
        6     2     1     2   101     0 -3.5647398424e+01  9.2653818860e+01  1.7235216416e+01  1.9842800084e+02  1.7094195409e+02  1.666840e-13 9.
       -6     2     1     2     0   103  3.5647398424e+01 -9.2653818860e+01  1.0588562760e+02  2.2474521533e+02  1.7159014691e+02  4.163170e-13 9.
       24     2     3     0     0     0 -8.4627486152e+01  3.8450465525e+01 -2.9142049020e-02  1.2320732164e+02  8.0868990002e+01  3.444408e-14 9.
        5     1     3     0   101     0  4.8980087728e+01  5.4203353335e+01  1.7264358465e+01  7.5220679203e+01  4.8000000000e+00 0. 9.
      -24     2     4     0     0     0  2.6536214390e+01 -6.3811399751e+01 -8.3678232716e+00  1.0645831896e+02  8.0543701170e+01  7.700396e-14 9.
       -5     1     4     0     0   103  9.1111840340e+00 -2.8842419110e+01  1.1425345088e+02  1.1828689637e+02  4.8000000000e+00 0. 9.
       -1     1     5     0     0   104 -3.4838589215e+01  8.1652185301e+00 -3.9132333915e+01  5.3026847444e+01  3.3000000000e-01 0. 9.
        2     1     5     0   104     0 -4.9788896937e+01  3.0285246995e+01  3.9103191866e+01  7.0180474192e+01  3.3000000000e-01 0. 9.
        3     1     7     0   105     0  2.1577331822e+01 -8.3275958358e+01 -7.4236191588e+00  8.6347128559e+01  5.0000000000e-01 0. 9.
       -2     1     7     0     0   105  4.9588825685e+00  1.9464558608e+01 -9.4420411287e-01  2.0111190405e+01  3.3000000000e-01 0. 9.
#pdf   21   21  4.202262e-02  2.308095e-02  1.976781e+02  2.287253e+00  4.066888e+00
</event>
<event>
    12  9999  1.000000e+00  2.121603e+02  7.893061e-03  1.049832e-01
       21    -1     0     0   101   102  0.0000000000e+00  0.0000000000e+00  2.1273372930e+01  2.1273372930e+01  0.0000000000e+00 0. 9.
       21    -1     0     0   103   101  0.0000000000e+00  0.0000000000e+00 -2.4867770881e+03  2.4867770881e+03  0.0000000000e+00 0. 9.
        6     2     1     2   103     0 -5.6722365784e+01 -1.1467370396e+02 -1.7126078856e+03  1.7255899157e+03  1.6812882678e+02  1.832154e-13 9.
       -6     2     1     2     0   102  5.6722365784e+01  1.1467370396e+02 -7.5289582959e+02  7.8246054529e+02  1.7036692625e+02  3.418323e-13 9.
       24     2     3     0     0     0  8.5966600408e+00 -1.0229119137e+02 -1.3948289879e+03  1.4008956449e+03  8.0145566406e+01  6.392106e-14 9.
        5     1     3     0   103     0 -6.5319025825e+01 -1.2382512585e+01 -3.1777889764e+02  3.2469427087e+02  4.8000000000e+00 0. 9.
      -24     2     4     0     0     0  2.9168930120e+01  1.4558973012e+02 -6.3830598330e+02  6.6052258827e+02  8.2512818957e+01  7.615834e-14 9.
       -5     1     4     0     0   102  2.7553435664e+01 -3.0916026158e+01 -1.1458984628e+02  1.2193795702e+02  4.8000000000e+00 0. 9.
       -1     1     5     0     0   104  1.7784773601e+01 -4.7310157403e+00 -5.6517452313e+02  5.6547416490e+02  3.3000000000e-01 0. 9.
        2     1     5     0   104     0 -9.1881135603e+00 -9.7560175633e+01 -8.2965446481e+02  8.3542147996e+02  3.3000000000e-01 0. 9.
        1     1     7     0   105     0  7.2615041856e+00  1.8869564128e+01 -2.6337108932e+02  2.6414622746e+02  3.3000000000e-01 0. 9.
       -2     1     7     0     0   105  2.1907425934e+01  1.2672016599e+02 -3.7493489399e+02  3.9637636081e+02  3.3000000000e-01 0. 9.
#pdf   21   21  3.272827e-03  3.825811e-01  2.112695e+02  1.801323e+01  4.146479e-02
</event>
<event>
    12  9999  1.000000e+00  1.792613e+02  7.877869e-03  1.071590e-01
       21    -1     0     0   101   102  0.0000000000e+00  0.0000000000e+00  4.3853159014e+01  4.3853159014e+01  0.0000000000e+00 0. 9.
       21    -1     0     0   103   101  0.0000000000e+00  0.0000000000e+00 -1.3907280946e+03  1.3907280946e+03  0.0000000000e+00 0. 9.
        6     2     1     2   103     0 -5.2688967872e+01  1.3745687142e+01 -1.1662988992e+03  1.1799560877e+03  1.7052324025e+02  1.638430e-13 9.
       -6     2     1     2     0   102  5.2688967872e+01 -1.3745687142e+01 -1.8057603641e+02  2.5462516590e+02  1.7105905101e+02  2.474446e-13 9.
       24     2     3     0     0     0 -7.6488479318e+01  4.5291291522e+01 -5.7595514650e+02  5.8827177304e+02  8.0234404259e+01  2.116661e-14 9.
        5     1     3     0   103     0  2.3799511446e+01 -3.1545604381e+01 -5.9034375267e+02  5.9168431466e+02  4.8000000000e+00 0. 9.
      -24     2     4     0     0     0 -4.4496601131e+00 -1.9919259396e+01 -2.0262973629e+01  8.4254235572e+01  7.9193508203e+01  9.576392e-15 9.
       -5     1     4     0     0   102  5.7138627985e+01  6.1735722544e+00 -1.6031306278e+02  1.7037093033e+02  4.8000000000e+00 0. 9.
       -3     1     5     0     0   104 -4.6538142410e+01  5.3644853811e+01 -2.2508647915e+02  2.3602487609e+02  5.0000000000e-01 0. 9.
        4     1     5     0   104     0 -2.9950336907e+01 -8.3535622885e+00 -3.5086866735e+02  3.5224689695e+02  1.5000000000e+00 0. 9.
        1     1     7     0   105     0 -1.9165232464e+01  5.7829669309e+00 -4.2657476916e+01  4.7122373442e+01  3.3000000000e-01 0. 9.
       -2     1     7     0     0   105  1.4715572351e+01 -2.5702226327e+01  2.2394503288e+01  3.7131862130e+01  3.3000000000e-01 0. 9.
#pdf   21   21  6.746640e-03  2.139582e-01  1.790063e+02  1.085188e+01  2.377431e-01
</event>
<event>
    12  9999  1.000000e+00  2.316123e+02  7.900993e-03  1.038855e-01
       21    -1     0     0   101   102  0.0000000000e+00  0.0000000000e+00  8.1621456104e+02  8.1621456104e+02  0.0000000000e+00 0. 9.
       21    -1     0     0   102   103  0.0000000000e+00  0.0000000000e+00 -1.0186257338e+02  1.0186257338e+02  0.0000000000e+00 0. 9.
        6     2     1     2   101     0 -2.3902876128e+01  1.5343205422e+02  6.3113602187e+02  6.7248001457e+02  1.7258026869e+02  1.449280e-13 9.
       -6     2     1     2     0   103  2.3902876128e+01 -1.5343205422e+02  8.3215965789e+01  2.4559711985e+02  1.7111488996e+02  4.131003e-14 9.
       24     2     3     0     0     0 -3.3902104519e+00  8.1896652227e+01  1.7926498925e+02  2.1449687807e+02  8.4583799631e+01  1.638671e-14 9.
        5     1     3     0   101     0 -2.0512665676e+01  7.1535401995e+01  4.5187103262e+02  4.5798313649e+02  4.8000000000e+00 0. 9.
      -24     2     4     0     0     0 -2.1229944224e+01 -1.5677837016e+02  9.1086782684e+01  1.9941098490e+02  8.0235721696e+01  2.350203e-15 9.
       -5     1     4     0     0   103  4.5132820352e+01  3.3463159371e+00 -7.8708168950e+00  4.6186134952e+01  4.8000000000e+00 0. 9.
      -11     1     5     0     0     0  1.2734800637e+01 -9.1677944113e+00  6.8139582401e+01  6.9923002594e+01  5.1100000000e-04 0. 9.
       12     1     5     0     0     0 -1.6125011089e+01  9.1064446639e+01  1.1112540685e+02  1.4457387548e+02  0.0000000000e+00 0. 9.
        3     1     7     0   104     0 -8.1077939618e-01 -9.5164201708e+01  1.0236591643e+01  9.5717921302e+01  5.0000000000e-01 0. 9.
       -4     1     7     0     0   104 -2.0419164827e+01 -6.1614168452e+01  8.0850191041e+01  1.0369306359e+02  1.5000000000e+00 0. 9.
#pdf   21   21  1.255715e-01  1.567117e-02  2.310694e+02  5.792656e-01  5.665659e+00
</event>
<event>
    12  9999  1.000000e+00  1.896008e+02  7.882918e-03  1.064248e-01
       21    -1     0     0   101   102  0.0000000000e+00  0.0000000000e+00  3.8363826375e+02  3.8363826375e+02  0.0000000000e+00 0. 9.
       21    -1     0     0   103   101  0.0000000000e+00  0.0000000000e+00 -1.2347809417e+02  1.2347809417e+02  0.0000000000e+00 0. 9.
        6     2     1     2   103     0 -5.5808892117e+01  5.5673399819e+01  6.5092237647e+00  1.9148144463e+02  1.7438065763e+02  2.122004e-13 9.
       -6     2     1     2     0   102  5.5808892117e+01 -5.5673399819e+01  2.5365094581e+02  3.1563491329e+02  1.7050641129e+02  1.255395e-13 9.
       24     2     3     0     0     0 -1.0763713031e+02  5.0219757459e+01  1.1321141640e+01  1.3892573092e+02  7.1164700548e+01  3.540759e-13 9.
        5     1     3     0   103     0  5.1828238194e+01  5.4536423608e+00 -4.8119178751e+00  5.2555713704e+01  4.8000000000e+00 0. 9.
      -24     2     4     0     0     0  7.7748040327e+01 -8.9518723894e+01  1.8426528985e+02  2.3523440683e+02  8.5575518764e+01  1.634027e-13 9.
       -5     1     4     0     0   102 -2.1939148210e+01  3.3845324075e+01  6.9385655961e+01  8.0400506460e+01  4.8000000000e+00 0. 9.
      -11     1     5     0     0     0 -8.0772328349e+01  1.4429177066e+01 -1.9813299593e+01  8.4409342011e+01  5.1100000000e-04 0. 9.
       12     1     5     0     0     0 -2.6864801962e+01  3.5790580393e+01  3.1134441233e+01  5.4516388914e+01  0.0000000000e+00 0. 9.
        1     1     7     0   104     0 -1.6458918713e+01 -3.1511965715e+01  4.7123940653e+01  5.9031133066e+01  3.3000000000e-01 0. 9.
       -2     1     7     0     0   104  9.4206959040e+01 -5.8006758180e+01  1.3714134920e+02  1.7620327377e+02  3.3000000000e-01 0. 9.
#pdf   21   21  5.902127e-02  1.899663e-02  1.878473e+02  1.587141e+00  4.828367e+00
</event>
<event>
    12  9999  1.000000e+00  1.765188e+02  7.876482e-03  1.073627e-01
       21    -1     0     0   101   102  0.0000000000e+00  0.0000000000e+00  1.0588822931e+02  1.0588822931e+02  0.0000000000e+00 0. 9.
       21    -1     0     0   103   101  0.0000000000e+00  0.0000000000e+00 -3.4832040261e+02  3.4832040261e+02  0.0000000000e+00 0. 9.
        6     2     1     2   103     0 -1.3253328760e+01  4.0771828522e+01 -2.1076564097e+02  2.7501063059e+02  1.7137881666e+02  1.031916e-14 9.
       -6     2     1     2     0   102  1.3253328760e+01 -4.0771828522e+01 -3.1666532330e+01  1.7919800133e+02  1.7108816933e+02  4.159082e-14 9.
       24     2     3     0     0     0  3.2938043879e+01  3.2977307374e+00 -7.0724824477e+01  1.2278572726e+02  9.4755180641e+01  3.380302e-13 9.
        5     1     3     0   103     0 -4.6191372639e+01  3.7474097784e+01 -1.4004081649e+02  1.5222490333e+02  4.8000000000e+00 0. 9.
      -24     2     4     0     0     0  3.9144071998e+01 -8.3095901631e+01 -3.8966716487e+01  1.2881952935e+02  8.1479315825e+01  6.064993e-14 9.
       -5     1     4     0     0   102 -2.5890743238e+01  4.2324073110e+01  7.3001841567e+00  5.0378471977e+01  4.8000000000e+00 0. 9.
      -13     1     5     0     0     0 -1.6984923116e+00 -2.5702432714e+00  2.2734229614e+01  2.2942262024e+01  1.0566000000e-01  1.059739e+06 9.
       14     1     5     0     0     0  3.4636536191e+01  5.8679740088e+00 -9.3459054091e+01  9.9843465234e+01  0.0000000000e+00 0. 9.
        1     1     7     0   104     0  4.3875898120e+01 -1.6156532422e+01 -4.0257195341e+01  6.1699908043e+01  3.3000000000e-01 0. 9.
       -2     1     7     0     0   104 -4.7318261222e+00 -6.6939369209e+01  1.2904788540e+00  6.7119621306e+01  3.3000000000e-01 0. 9.
#pdf   21   21  1.629050e-02  5.358775e-02  1.763779e+02  5.499318e+00  1.775971e+00
</event>
<event>
    12  9999  1.000000e+00  1.981004e+02  7.886872e-03  1.058577e-01
       21    -1     0     0   101   102  0.0000000000e+00  0.0000000000e+00  2.8559645852e+02  2.8559645852e+02  0.0000000000e+00 0. 9.
       21    -1     0     0   103   101  0.0000000000e+00  0.0000000000e+00 -1.3989317352e+02  1.3989317352e+02  0.0000000000e+00 0. 9.
        6     2     1     2   103     0  8.5149063117e+01  5.3083742740e+01  4.4448218108e+01  2.0286562795e+02  1.7061820600e+02  1.122391e-13 9.
       -6     2     1     2     0   102 -8.5149063117e+01 -5.3083742740e+01  1.0125506689e+02  2.2262400409e+02  1.7099886529e+02  2.483260e-14 9.
       24     2     3     0     0     0  4.7253775422e+01  9.5958197899e+01  5.1007860882e+01  1.4506994777e+02  8.3681496386e+01  6.518377e-14 9.
        5     1     3     0   103     0  3.7895287694e+01 -4.2874455159e+01 -6.5596427738e+00  5.7795680184e+01  4.8000000000e+00 0. 9.
      -24     2     4     0     0     0 -5.3307054606e+01 -9.0824862218e+01  1.1012214442e+02  1.7222588240e+02  8.0274966268e+01  3.820510e-14 9.
       -5     1     4     0     0   102 -3.1842008511e+01  3.7741119478e+01 -8.8670775308e+00  5.0398121685e+01  4.8000000000e+00 0. 9.
       -3     1     5     0     0   104  3.5247515236e+01  9.0517380649e+01  7.1529315168e+01  1.2063364563e+02  5.0000000000e-01 0. 9.
        4     1     5     0   104     0  1.2006260187e+01  5.4408172505e+00 -2.0521454286e+01  2.4436302135e+01  1.5000000000e+00 0. 9.
       13     1     7     0     0     0  7.0625634701e+00 -3.6665792558e+01  2.4420248765e+00  3.7419711333e+01  1.0566000000e-01  5.914002e+04 9.
      -14     1     7     0     0     0 -6.0369618076e+01 -5.4159069660e+01  1.0768011954e+02  1.3480617107e+02  0.0000000000e+00 0. 9.
#pdf   21   21  4.393792e-02  2.152203e-02  1.979364e+02  2.183317e+00  4.327456e+00
</event>
<event>
    12  9999  1.000000e+00  2.320642e+02  7.901170e-03  1.038614e-01
       21    -1     0     0   101   102  0.0000000000e+00  0.0000000000e+00  3.8480025246e+02  3.8480025246e+02  0.0000000000e+00 0. 9.
       21    -1     0     0   102   103  0.0000000000e+00  0.0000000000e+00 -1.4580324204e+02  1.4580324204e+02  0.0000000000e+00 0. 9.
        6     2     1     2   101     0 -1.5177301205e+02  3.4112786182e+01  1.7280675158e+02  2.8960529361e+02  1.7265666314e+02  2.556980e-14 9.
       -6     2     1     2     0   103  1.5177301205e+02 -3.4112786182e+01  6.6190258838e+01  2.4099820089e+02  1.7175637717e+02  1.852913e-13 9.
       24     2     3     0     0     0 -8.1520582233e+01  5.9857068657e+01  3.8187100553e+01  1.3551550674e+02  8.1717341619e+01  1.814086e-13 9.
        5     1     3     0   101     0 -7.0252429822e+01 -2.5744282475e+01  1.3461965103e+02  1.5408978687e+02  4.8000000000e+00 0. 9.
      -24     2     4     0     0     0  1.5236644123e+02 -5.3637388876e+01  9.5848968109e+01  2.0516188824e+02  8.2534076611e+01  1.080593e-13 9.
       -5     1     4     0     0   103 -5.9342917351e-01  1.9524602694e+01 -2.9658709271e+01  3.5836312647e+01  4.8000000000e+00 0. 9.
       -1     1     5     0     0   104 -2.3800033653e+00  3.7906628876e+01  3.7511916975e+01  5.3383796642e+01  3.3000000000e-01 0. 9.
        2     1     5     0   104     0 -7.9140578868e+01  2.1950439782e+01  6.7518357857e-01  8.2131710094e+01  3.3000000000e-01 0. 9.
        1     1     7     0   105     0  3.0533921878e+01  2.0246858370e+01  7.1670754333e+00  3.7332713930e+01  3.3000000000e-01 0. 9.
       -2     1     7     0     0   105  1.2183251935e+02 -7.3884247246e+01  8.8681892675e+01  1.6782917431e+02  3.3000000000e-01 0. 9.
#pdf   21   21  5.920004e-02  2.243127e-02  2.317304e+02  1.557540e+00  4.154517e+00
</event>
<event>
    12  9999  1.000000e+00  1.808153e+02  7.878646e-03  1.070453e-01
       21    -1     0     0   101   102  0.0000000000e+00  0.0000000000e+00  1.0650219537e+02  1.0650219537e+02  0.0000000000e+00 0. 9.
       21    -1     0     0   102   103  0.0000000000e+00  0.0000000000e+00 -3.3681540972e+02  3.3681540972e+02  0.0000000000e+00 0. 9.
        6     2     1     2   101     0 -3.8500685572e+01 -3.1477995254e+01 -5.0486373321e+01  1.8981447951e+02  1.7608945387e+02  4.009789e-14 9.
       -6     2     1     2     0   103  3.8500685572e+01  3.1477995254e+01 -1.7982684103e+02  2.5350312559e+02  1.7161869057e+02  3.222025e-13 9.
       24     2     3     0     0     0  4.6143858731e+01 -1.6843533238e+00 -3.5969932899e+01  9.8786313416e+01  7.9578935032e+01  7.174511e-14 9.
        5     1     3     0   101     0 -8.4644544303e+01 -2.9793641930e+01 -1.4516440423e+01  9.1028166093e+01  4.8000000000e+00 0. 9.
      -24     2     4     0     0     0  2.3651335364e+00 -6.3596846956e+00 -1.6377201764e+01  8.1816513643e+01  7.9872959886e+01  1.754572e-14 9.
       -5     1     4     0     0   103  3.6135552035e+01  3.7837679949e+01 -1.6344963927e+02  1.7168661195e+02  4.8000000000e+00 0. 9.
       -1     1     5     0     0   104  4.6325417949e+01  6.5762562913e+00  1.3444913460e+01  4.8684351622e+01  3.3000000000e-01 0. 9.
        2     1     5     0   104     0 -1.8155921756e-01 -8.2606096152e+00 -4.9414846358e+01  5.0101961794e+01  3.3000000000e-01 0. 9.
        1     1     7     0   105     0  3.7301660957e+01 -1.5384297158e+01 -2.0911966006e+01  4.5447879285e+01  3.3000000000e-01 0. 9.
       -2     1     7     0     0   105 -3.4936527421e+01  9.0246124626e+00  4.5347642425e+00  3.6368634358e+01  3.3000000000e-01 0. 9.
#pdf   21   21  1.638495e-02  5.181776e-02  1.786789e+02  5.472643e+00  1.841161e+00
</event>
<event>
    12  9999  1.000000e+00  4.110081e+02  7.953253e-03  9.724453e-02
       21    -1     0     0   101   102  0.0000000000e+00  0.0000000000e+00  1.8801512798e+03  1.8801512798e+03  0.0000000000e+00 0. 9.
       21    -1     0     0   103   101  0.0000000000e+00  0.0000000000e+00 -1.7697468686e+02  1.7697468686e+02  0.0000000000e+00 0. 9.
        6     2     1     2   103     0  1.4163500484e+02 -3.4424310764e+02  1.2662771313e+02  4.2708476783e+02  1.6674240440e+02  1.307791e-13 9.
       -6     2     1     2     0   102 -1.4163500484e+02  3.4424310764e+02  1.5765488798e+03  1.6300411989e+03  1.8156031432e+02  7.645598e-15 9.
       24     2     3     0     0     0  5.9363182639e+01 -1.3124952500e+02  1.1017124901e+02  1.9811146330e+02  7.9749749322e+01  1.230215e-13 9.
        5     1     3     0   103     0  8.2271822202e+01 -2.1299358264e+02  1.6456464115e+01  2.2897330453e+02  4.8000000000e+00 0. 9.
      -24     2     4     0     0     0 -1.0404459112e+02  1.3929514637e+02  5.5095501375e+02  5.8348373547e+02  8.1691049944e+01  5.773946e-14 9.
       -5     1     4     0     0   102 -3.7590413723e+01  2.0494796127e+02  1.0255938661e+03  1.0465574634e+03  4.8000000000e+00 0. 9.
       -1     1     5     0     0   104 -1.8291535118e+00 -7.3525488992e+01  8.0175727347e+01  1.0880073295e+02  3.3000000000e-01 0. 9.
        2     1     5     0   104     0  6.1192336151e+01 -5.7724036004e+01  2.9995521667e+01  8.9310730353e+01  3.3000000000e-01 0. 9.
       13     1     7     0     0     0 -4.8758957006e+01  1.2168953709e+02  4.2600238529e+02  4.4571720043e+02  1.0566000000e-01  6.966208e+05 9.
      -14     1     7     0     0     0 -5.5285634112e+01  1.7605609276e+01  1.2495262846e+02  1.3776653504e+02  0.0000000000e+00 0. 9.
#pdf   21   21  2.892540e-01  2.722687e-02  4.078809e+02  9.553016e-02  3.409496e+00
</event>
<event>
    12  9999  1.000000e+00  1.797196e+02  7.878099e-03  1.071253e-01
       21    -1     0     0   101   102  0.0000000000e+00  0.0000000000e+00  1.1628613717e+03  1.1628613717e+03  0.0000000000e+00 0. 9.
       21    -1     0     0   103   101  0.0000000000e+00  0.0000000000e+00 -6.1263602980e+01  6.1263602980e+01  0.0000000000e+00 0. 9.
        6     2     1     2   103     0  7.2705656696e+00  5.3230871643e+01  9.9016128855e+01  2.0565594000e+02  1.7205750511e+02  3.230119e-13 9.
       -6     2     1     2     0   102 -7.2705656696e+00 -5.3230871643e+01  1.0025816398e+03  1.0184690346e+03  1.7094690163e+02  4.807092e-14 9.
       24     2     3     0     0     0  3.7492759329e+01  5.6540201112e+01  2.5324586963e+00  1.0438170212e+02  7.9288240282e+01  5.481760e-14 9.
        5     1     3     0   103     0 -3.0222193660e+01 -3.3093294689e+00  9.6483670159e+01  1.0127423788e+02  4.8000000000e+00 0. 9.
      -24     2     4     0     0     0  2.3411681995e+01  2.2724270972e+01  6.8642499561e+02  6.9183675257e+02  7.9964481197e+01  5.439064e-15 9.
       -5     1     4     0     0   102 -3.0682247665e+01 -7.5955142616e+01  3.1615664421e+02  3.2663228207e+02  4.8000000000e+00 0. 9.
       -3     1     5     0     0   104  6.2394549286e+01  4.3906648401e+01 -8.1399225690e-02  7.6296331368e+01  5.0000000000e-01 0. 9.
        4     1     5     0   104     0 -2.4901789957e+01  1.2633552711e+01  2.6138579220e+00  2.8085370754e+01  1.5000000000e+00 0. 9.
       13     1     7     0     0     0 -1.5190859726e+01  3.6806828086e+01  4.5945040999e+02  4.6117263060e+02  1.0566000000e-01  1.860988e+05 9.
      -14     1     7     0     0     0  3.8602541721e+01 -1.4082557114e+01  2.2697458563e+02  2.3066412196e+02  0.0000000000e+00 0. 9.
#pdf   21   21  1.789017e-01  9.425170e-03  1.791905e+02  3.350389e-01  8.479587e+00
</event>
<event>
    12  9999  1.000000e+00  2.316043e+02  7.900990e-03  1.038860e-01
       21    -1     0     0   101   102  0.0000000000e+00  0.0000000000e+00  1.5976146552e+02  1.5976146552e+02  0.0000000000e+00 0. 9.
       21    -1     0     0   102   103  0.0000000000e+00  0.0000000000e+00 -4.0077269581e+02  4.0077269581e+02  0.0000000000e+00 0. 9.
        6     2     1     2   101     0  1.3305176364e+02  7.8430573273e+01 -7.4857107992e+00  2.3141811951e+02  1.7217486326e+02  9.997727e-15 9.
       -6     2     1     2     0   103 -1.3305176364e+02 -7.8430573273e+01 -2.3352551949e+02  3.2911604182e+02  1.7300021415e+02  6.830136e-14 9.
       24     2     3     0     0     0  9.3069563122e+01 -2.3190590398e+00  4.0337907942e+01  1.2929457674e+02  8.0141244959e+01  8.564944e-15 9.
        5     1     3     0   101     0  3.9982200522e+01  8.0749632313e+01 -4.7823618741e+01  1.0212354276e+02  4.8000000000e+00 0. 9.
      -24     2     4     0     0     0 -1.0169265891e+02 -1.1206531659e+02 -1.3736885663e+02  2.2242099404e+02  8.7754565459e+01  1.103860e-14 9.
       -5     1     4     0     0   103 -3.1359104732e+01  3.3634743321e+01 -9.6156662854e+01  1.0669504777e+02  4.8000000000e+00 0. 9.
       -1     1     5     0     0   104  4.2298099651e+01 -4.0359948744e+01  1.1409806829e+01  5.9568005578e+01  3.3000000000e-01 0. 9.
        2     1     5     0   104     0  5.0771463471e+01  3.8040889704e+01  2.8928101112e+01  6.9726571165e+01  3.3000000000e-01 0. 9.
        3     1     7     0   105     0 -4.7353512439e+01 -5.6877601188e+00 -7.1677054062e+01  8.6096201046e+01  5.0000000000e-01 0. 9.
       -2     1     7     0     0   105 -5.4339146473e+01 -1.0637755648e+02 -6.5691802572e+01  1.3632479300e+02  3.3000000000e-01 0. 9.
#pdf   21   21  2.457869e-02  6.165734e-02  2.312970e+02  3.824691e+00  1.485981e+00
</event>
<event>
    12  9999  1.000000e+00  3.884216e+02  7.948072e-03  9.786055e-02
       -2    -1     0     0     0   101  0.0000000000e+00  0.0000000000e+00  1.7039968414e+02  1.7039968414e+02  0.0000000000e+00 0. 9.
        2    -1     0     0   102     0  0.0000000000e+00  0.0000000000e+00 -1.4841096834e+03  1.4841096834e+03  0.0000000000e+00 0. 9.
       -6     2     1     2     0   101  2.4653393167e+02  2.4645847568e+02 -1.3165317039e+02  4.1034153095e+02  1.7183380065e+02  5.934239e-15 9.
        6     2     1     2   102     0 -2.4653393167e+02 -2.4645847568e+02 -1.1820568289e+03  1.2441678366e+03  1.7080544257e+02  8.820262e-14 9.
      -24     2     3     0     0     0  1.5564811917e+02  7.6004275524e+01 -9.5087222263e+01  2.1368199310e+02  8.1335277934e+01  5.561628e-14 9.
       -5     1     3     0     0   101  9.0885812502e+01  1.7045420016e+02 -3.6565948127e+01  1.9665953785e+02  4.8000000000e+00 0. 9.
       24     2     4     0     0     0 -2.1235756645e+02 -2.3395840799e+02 -1.1501614629e+03  1.1955403752e+03  8.1321124203e+01  8.890080e-14 9.
        5     1     4     0   102     0 -3.4176365228e+01 -1.2500067692e+01 -3.1895365965e+01  4.8627461403e+01  4.8000000000e+00 0. 9.
       11     1     5     0     0     0  9.0460326726e+01  8.6614921196e+01 -5.9437840324e+01  1.3862926151e+02  5.1100000000e-04 0. 9.
      -12     1     5     0     0     0  6.5187792446e+01 -1.0610645672e+01 -3.5649381939e+01  7.5052731584e+01  0.0000000000e+00 0. 9.
       -3     1     7     0     0   103 -1.4634792585e+02 -1.9368325973e+02 -7.6148454042e+02  7.9924331452e+02  5.0000000000e-01 0. 9.
        4     1     7     0   103     0 -6.6009640597e+01 -4.0275148256e+01 -3.8867692250e+02  3.9629706068e+02  1.5000000000e+00 0. 9.
#pdf   -2    2  2.621534e-02  2.283246e-01  3.881949e+02  2.771357e-01  3.881558e-01
</event>
<event>
    12  9999  1.000000e+00  1.753040e+02  7.875861e-03  1.074541e-01
       21    -1     0     0   101   102  0.0000000000e+00  0.0000000000e+00  1.9418470001e+02  1.9418470001e+02  0.0000000000e+00 0. 9.
       21    -1     0     0   102   103  0.0000000000e+00  0.0000000000e+00 -4.1771751325e+02  4.1771751325e+02  0.0000000000e+00 0. 9.
        6     2     1     2   101     0  2.9763519702e+01 -7.0197177734e+00  1.2970964355e+02  2.1688808405e+02  1.7111605953e+02  9.392116e-14 9.
       -6     2     1     2     0   103 -2.9763519702e+01  7.0197177734e+00 -3.5324245679e+02  3.9501412921e+02  1.7412864627e+02  1.049531e-13 9.
       24     2     3     0     0     0  1.9901538366e+01  4.9339802168e+01  1.2638796119e+02  1.5937523559e+02  8.1216141738e+01  1.128672e-13 9.
        5     1     3     0   101     0  9.8619813352e+00 -5.6359519941e+01  3.3216823638e+00  5.7512848457e+01  4.8000000000e+00 0. 9.
      -24     2     4     0     0     0 -5.6196646152e+01 -4.9857104794e+01 -2.6871012849e+02  2.8964602376e+02  7.7755334127e+01  4.679851e-14 9.
       -5     1     4     0     0   103  2.6433126450e+01  5.6876822567e+01 -8.4532328294e+01  1.0536810545e+02  4.8000000000e+00 0. 9.
      -13     1     5     0     0     0  2.3720858067e+00  5.6391090139e+01  3.5799062623e+01  6.6836860241e+01  1.0566000000e-01  3.018738e+05 9.
       14     1     5     0     0     0  1.7529452560e+01 -7.0512879711e+00  9.0588898563e+01  9.2538375348e+01  0.0000000000e+00 0. 9.
        1     1     7     0   104     0 -1.8584909800e+01 -5.9250879532e+00 -1.9491239725e+02  1.9588633705e+02  3.3000000000e-01 0. 9.
       -2     1     7     0     0   104 -3.7611736352e+01 -4.3932016841e+01 -7.3797731241e+01  9.3759686707e+01  3.3000000000e-01 0. 9.
#pdf   21   21  2.987457e-02  6.426423e-02  1.738271e+02  3.220984e+00  1.446782e+00
</event>
<event>
    12  9999  1.000000e+00  1.817491e+02  7.879109e-03  1.069776e-01
       21    -1     0     0   101   102  0.0000000000e+00  0.0000000000e+00  4.5045080960e+01  4.5045080960e+01  0.0000000000e+00 0. 9.
       21    -1     0     0   103   101  0.0000000000e+00  0.0000000000e+00 -7.5443765886e+02  7.5443765886e+02  0.0000000000e+00 0. 9.
        6     2     1     2   103     0  5.6206819334e+01 -2.8078949681e+01 -4.2254277467e+02  4.6017906182e+02  1.7109862230e+02  3.049821e-13 9.
       -6     2     1     2     0   102 -5.6206819334e+01  2.8078949681e+01 -2.8684980323e+02  3.3930367801e+02  1.6998983011e+02  2.537543e-14 9.
       24     2     3     0     0     0  9.8938157379e+01 -1.5905467477e+01 -3.6303642538e+02  3.8575993439e+02  8.3507711927e+01  5.175753e-14 9.
        5     1     3     0   103     0 -4.2731338045e+01 -1.2173482204e+01 -5.9506349295e+01  7.4419127423e+01  4.8000000000e+00 0. 9.
      -24     2     4     0     0     0 -8.2174296904e+01  6.4904307797e+01 -1.8463330660e+02  2.2749281505e+02  8.1843379395e+01  9.832493e-15 9.
       -5     1     4     0     0   102  2.5967477569e+01 -3.6825358116e+01 -1.0221649663e+02  1.1181086295e+02  4.8000000000e+00 0. 9.
      -15     1     5     0     0     0  3.9083243315e+01  2.6074358612e+01 -2.2174361373e+02  2.2667324369e+02  1.7768200000e+00  1.212438e-03 9.
       16     1     5     0     0     0  5.9854914064e+01 -4.1979826090e+01 -1.4129281165e+02  1.5908669070e+02  0.0000000000e+00 0. 9.
        3     1     7     0   104     0 -2.5720431553e+01  3.3030561032e+01 -1.4627753099e+02  1.5215099287e+02  5.0000000000e-01 0. 9.
       -4     1     7     0     0   104 -5.6453865351e+01  3.1873746765e+01 -3.8355775619e+01  7.5341822179e+01  1.5000000000e+00 0. 9.
#pdf   21   21  6.930012e-03  1.160673e-01  1.812296e+02  1.064783e+01  6.701331e-01
</event>
<event>
    12  9999  1.000000e+00  2.751851e+02  7.916628e-03  1.017949e-01
       21    -1     0     0   101   102  0.0000000000e+00  0.0000000000e+00  1.0089921921e+03  1.0089921921e+03  0.0000000000e+00 0. 9.
       21    -1     0     0   102   103  0.0000000000e+00  0.0000000000e+00 -7.7821292181e+01  7.7821292181e+01  0.0000000000e+00 0. 9.
        6     2     1     2   101     0 -1.6615869622e+02  1.3640777029e+02  3.6370359639e+02  4.5630934210e+02  1.7240103694e+02  6.207234e-14 9.
       -6     2     1     2     0   103  1.6615869622e+02 -1.3640777029e+02  5.6746730353e+02  6.3050414218e+02  1.7117400681e+02  2.288190e-14 9.
       24     2     3     0     0     0 -7.3120742605e+01  1.5665482293e+01  8.8640948926e+01  1.4179819611e+02  8.1593261115e+01  4.540584e-14 9.
        5     1     3     0   101     0 -9.3037953612e+01  1.2074228800e+02  2.7506264746e+02  3.1451114599e+02  4.8000000000e+00 0. 9.
      -24     2     4     0     0     0  1.7259703419e+02 -9.3482090221e+01  5.3539593049e+02  5.7632223400e+02  8.3485792905e+01  2.609264e-14 9.
       -5     1     4     0     0   103 -6.4383379715e+00 -4.2925680068e+01  3.2071373040e+01  5.4181908178e+01  4.8000000000e+00 0. 9.
      -15     1     5     0     0     0  1.3724691243e+01  9.4159649613e-01  3.7409352310e+01  3.9898251632e+01  1.7768200000e+00  9.805576e-02 9.
       16     1     5     0     0     0 -8.6845433848e+01  1.4723885797e+01  5.1231596615e+01  1.0189994448e+02  0.0000000000e+00 0. 9.
        3     1     7     0   104     0  1.1079243358e+02 -1.2830912448e+01  2.9090722669e+02  3.1155554913e+02  5.0000000000e-01 0. 9.
       -4     1     7     0     0   104  6.1804600608e+01 -8.0651177773e+01  2.4448870380e+02  2.6476668488e+02  1.5000000000e+00 0. 9.
#pdf   21   21  1.552296e-01  1.197251e-02  2.748024e+02  4.028430e-01  7.056048e+00
</event>
<event>
    12  9999  1.000000e+00  2.150528e+02  7.894284e-03  1.048122e-01
       -1    -1     0     0     0   101  0.0000000000e+00  0.0000000000e+00  2.9194926888e+02  2.9194926888e+02  0.0000000000e+00 0. 9.
        1    -1     0     0   102     0  0.0000000000e+00  0.0000000000e+00 -2.1219226826e+02  2.1219226826e+02  0.0000000000e+00 0. 9.
       -6     2     1     2     0   101 -1.2658499494e+01 -1.3058234709e+02  1.6681235706e+02  2.7233504994e+02  1.7066935864e+02  2.745980e-14 9.
        6     2     1     2   102     0  1.2658499494e+01  1.3058234709e+02 -8.7055356444e+01  2.3180648719e+02  1.7012826173e+02  3.243027e-13 9.
      -24     2     3     0     0     0 -3.9945395390e+00  1.6070180691e+00  4.6187619657e+01  9.3107653216e+01  8.0729177035e+01  1.040886e-13 9.
       -5     1     3     0     0   101 -8.6639599545e+00 -1.3218936516e+02  1.2062473741e+02  1.7922739672e+02  4.8000000000e+00 0. 9.
       24     2     4     0     0     0 -2.0042523823e+01  1.5288694338e+02 -6.2857982022e+01  1.8516525146e+02  8.0987185565e+01  1.683992e-14 9.
        5     1     4     0   102     0  3.2701023317e+01 -2.2304596295e+01 -2.4197374422e+01  4.6641235734e+01  4.8000000000e+00 0. 9.
        1     1     5     0   103     0  1.3529732319e+01 -1.9919771627e+01 -1.3264592314e+01  2.7493804167e+01  3.3000000000e-01 0. 9.
       -2     1     5     0     0   103 -1.7524271858e+01  2.1526789697e+01  5.9452211971e+01  6.5613849049e+01  3.3000000000e-01 0. 9.
      -13     1     7     0     0     0 -4.3184447204e+01  7.2423486281e+01 -5.5865497619e+01  1.0114851869e+02  1.0566000000e-01  1.022615e+05 9.
       14     1     7     0     0     0  2.3141923381e+01  8.0463457101e+01 -6.9924844027e+00  8.4016732765e+01  0.0000000000e+00 0. 9.
#pdf   -1    1  4.491527e-02  3.264496e-02  2.148386e+02  2.073593e-01  4.826125e-01
</event>
<event>
    12  9999  1.000000e+00  2.641046e+02  7.912894e-03  1.022856e-01
       -2    -1     0     0     0   101  0.0000000000e+00  0.0000000000e+00  3.1979846328e+02  3.1979846328e+02  0.0000000000e+00 0. 9.
        2    -1     0     0   102     0  0.0000000000e+00  0.0000000000e+00 -2.5792379098e+02  2.5792379098e+02  0.0000000000e+00 0. 9.
       -6     2     1     2     0   101 -1.4710736619e+02  1.3460634435e+02 -8.2393589837e+01  2.7809069467e+02  1.7546021113e+02  1.584601e-13 9.
        6     2     1     2   102     0  1.4710736619e+02 -1.3460634435e+02  1.4426826214e+02  2.9963155959e+02  1.7089849302e+02  7.198490e-14 9.
      -24     2     3     0     0     0 -1.1064872137e+02  1.4456906907e+02 -1.1238550583e+02  2.2960313244e+02  8.3329113953e+01  2.372799e-14 9.
       -5     1     3     0     0   101 -3.6458644822e+01 -9.9627247267e+00  2.9991915991e+01  4.8487562230e+01  4.8000000000e+00 0. 9.
       24     2     4     0     0     0  1.3092649080e+02 -3.1243743033e+01  9.4809521659e+01  1.8380904413e+02  8.1725160345e+01  5.296954e-14 9.
        5     1     4     0   102     0  1.6180875394e+01 -1.0336260131e+02  4.9458740481e+01  1.1582251547e+02  4.8000000000e+00 0. 9.
        1     1     5     0   103     0 -7.3960607935e-01  6.2856791045e+01 -4.2171745670e+01  7.5697346258e+01  3.3000000000e-01 0. 9.
       -2     1     5     0     0   103 -1.0990911529e+02  8.1712278028e+01 -7.0213760157e+01  1.5390578618e+02  3.3000000000e-01 0. 9.
       -3     1     7     0     0   104  6.5274077191e+01 -3.1938253269e+01  9.3112217531e+01  1.1811389515e+02  5.0000000000e-01 0. 9.
        4     1     7     0   104     0  6.5652413607e+01  6.9451023636e-01  1.6973041277e+00  6.5695148970e+01  1.5000000000e+00 0. 9.
#pdf   -2    2  4.919976e-02  3.968058e-02  2.626133e+02  1.580582e-01  6.341648e-01
</event>
<event>
    12  9999  1.000000e+00  1.756817e+02  7.876054e-03  1.074256e-01
       21    -1     0     0   101   102  0.0000000000e+00  0.0000000000e+00  1.8189991940e+03  1.8189991940e+03  0.0000000000e+00 0. 9.
       21    -1     0     0   102   103  0.0000000000e+00  0.0000000000e+00 -2.9454901501e+01  2.9454901501e+01  0.0000000000e+00 0. 9.
        6     2     1     2   101     0  3.5599308074e+01  9.2307517451e+00  1.4953964450e+03  1.5056352408e+03  1.7138971109e+02  3.991377e-13 9.
       -6     2     1     2     0   103 -3.5599308074e+01 -9.2307517451e+00  2.9414784751e+02  3.4281885472e+02  1.7218970192e+02  1.940737e-13 9.
       24     2     3     0     0     0  5.0320092039e+01 -1.8412929481e+01  1.3772621532e+03  1.3833256930e+03  1.1776156636e+02  3.681803e-13 9.
        5     1     3     0   101     0 -1.4720783965e+01  2.7643681226e+01  1.1813429178e+02  1.2230954781e+02  4.8000000000e+00 0. 9.
      -24     2     4     0     0     0 -3.7973014733e+01  1.4086181720e+01  6.2918735712e+01  1.1035540381e+02  8.1112129071e+01  3.970628e-14 9.
       -5     1     4     0     0   103  2.3737066584e+00 -2.3316933465e+01  2.3122911180e+02  2.3246345091e+02  4.8000000000e+00 0. 9.
      -15     1     5     0     0     0 -1.4180641286e+01  3.5850399840e+01  6.6006195909e+02  6.6118929868e+02  1.7768200000e+00  2.191746e-01 9.
       16     1     5     0     0     0  6.4500733325e+01 -5.4263329320e+01  7.1720019414e+02  7.2213639431e+02  0.0000000000e+00 0. 9.
        1     1     7     0   104     0 -3.0257860768e+01 -2.8523411539e+01  5.0273763630e+01  6.5243262898e+01  3.3000000000e-01 0. 9.
       -2     1     7     0     0   104 -7.7151539644e+00  4.2609593259e+01  1.2644972083e+01  4.5112140909e+01  3.3000000000e-01 0. 9.
#pdf   21   21  2.798460e-01  4.531523e-03  1.752910e+02  1.275824e-01  1.433389e+01
</event>
<event>
    12  9999  1.000000e+00  1.717496e+02  7.874019e-03  1.077264e-01
        2    -1     0     0   101     0  0.0000000000e+00  0.0000000000e+00  7.2965661458e+02  7.2965661458e+02  0.0000000000e+00 0. 9.
       -2    -1     0     0     0   102  0.0000000000e+00  0.0000000000e+00 -5.5038379690e+01  5.5038379690e+01  0.0000000000e+00 0. 9.
        6     2     1     2   101     0 -1.6214349179e+01  6.8969928944e+00  5.3873861988e+02  5.6530173074e+02  1.7034163493e+02  4.273128e-13 9.
       -6     2     1     2     0   102  1.6214349179e+01 -6.8969928944e+00  1.3587961501e+02  2.1939326353e+02  1.7134660977e+02  1.588292e-13 9.
       24     2     3     0     0     0  3.5520720749e+01  3.3182156339e+01  1.8006341839e+02  2.0193089062e+02  7.7398144964e+01  1.802270e-14 9.
        5     1     3     0   101     0 -5.1735069928e+01 -2.6285163444e+01  3.5867520150e+02  3.6337084012e+02  4.8000000000e+00 0. 9.
      -24     2     4     0     0     0 -3.6778208418e+01 -1.9771008179e+01  1.3722715942e+02  1.6463189662e+02  8.0801229714e+01  1.147097e-13 9.
       -5     1     4     0     0   102  5.2992557597e+01  1.2874015285e+01 -1.3475444164e+00  5.4761366913e+01  4.8000000000e+00 0. 9.
       -1     1     5     0     0   103  4.4119414680e+01 -2.5137972671e+00  4.9750688387e+01  6.6543833849e+01  3.3000000000e-01 0. 9.
        2     1     5     0   103     0 -8.5986939312e+00  3.5695953606e+01  1.3031273000e+02  1.3538705677e+02  3.3000000000e-01 0. 9.
        1     1     7     0   104     0 -4.3790206142e+00  2.4804064986e+01  1.2178449198e+01  2.7979295670e+01  3.3000000000e-01 0. 9.
       -2     1     7     0     0   104 -3.2399187803e+01 -4.4575073164e+01  1.2504871022e+02  1.3665260095e+02  3.3000000000e-01 0. 9.
#pdf    2   -2  1.122549e-01  8.467443e-03  1.712505e+02  5.667999e-01  5.689119e-01
</event>
<event>
    12  9999  1.000000e+00  1.830123e+02  7.879733e-03  1.068867e-01
       21    -1     0     0   101   102  0.0000000000e+00  0.0000000000e+00  1.6321936336e+01  1.6321936336e+01  0.0000000000e+00 0. 9.
       21    -1     0     0   102   103  0.0000000000e+00  0.0000000000e+00 -2.0990158728e+03  2.0990158728e+03  0.0000000000e+00 0. 9.
        6     2     1     2   101     0 -1.0249716768e+01  6.2314493728e+01 -1.1960972603e+03  1.2099249742e+03  1.7111877240e+02  2.357093e-14 9.
       -6     2     1     2     0   103  1.0249716768e+01 -6.2314493728e+01 -8.8659667619e+02  9.0541283497e+02  1.7242558588e+02  3.160072e-13 9.
       24     2     3     0     0     0 -6.7176673314e+01  2.7995573202e+01 -8.9663693473e+02  9.0313841439e+02  8.0029652442e+01  3.558103e-14 9.
        5     1     3     0   101     0  5.6926956546e+01  3.4318920526e+01 -2.9946032558e+02  3.0678655982e+02  4.8000000000e+00 0. 9.
      -24     2     4     0     0     0 -3.9954000860e+00 -5.2637103955e+01 -8.7677430882e+02  8.8501444955e+02  1.0830863013e+02  6.383846e-14 9.
       -5     1     4     0     0   103  1.4245116854e+01 -9.6773897730e+00 -9.8223673699e+00  2.0398385420e+01  4.8000000000e+00 0. 9.
       -3     1     5     0     0   104 -4.7273437969e+01  5.5397508368e+01 -5.3890068223e+02  5.4379946412e+02  5.0000000000e-01 0. 9.
        4     1     5     0   104     0 -1.9903235345e+01 -2.7401935166e+01 -3.5773625250e+02  3.5933895026e+02  1.5000000000e+00 0. 9.
        3     1     7     0   105     0 -1.0367712236e+01 -5.7991795420e+00 -6.6841339673e+00  1.3639926219e+01  5.0000000000e-01 0. 9.
       -4     1     7     0     0   105  6.3723121502e+00 -4.6837924413e+01 -8.7009017486e+02  8.7137452333e+02  1.5000000000e+00 0. 9.
#pdf   21   21  2.511067e-03  3.229255e-01  1.824001e+02  2.122718e+01  8.247774e-02
</event>
<event>
    12  9999  1.000000e+00  2.649185e+02  7.913174e-03  1.022487e-01
       21    -1     0     0   101   102  0.0000000000e+00  0.0000000000e+00  1.0705517300e+03  1.0705517300e+03  0.0000000000e+00 0. 9.
       21    -1     0     0   102   103  0.0000000000e+00  0.0000000000e+00 -9.0450223387e+01  9.0450223387e+01  0.0000000000e+00 0. 9.
        6     2     1     2   101     0  1.9829672684e+02 -4.0724247563e+01  7.9485570627e+02  8.3790397954e+02  1.7119412644e+02  1.125526e-13 9.
       -6     2     1     2     0   103 -1.9829672684e+02  4.0724247563e+01  1.8524580032e+02  3.2309797382e+02  1.7057619393e+02  1.646667e-13 9.
       24     2     3     0     0     0  6.3564844084e+01 -4.3207939438e+01  5.2199603963e+02  5.3354516722e+02  7.9266415619e+01  2.297456e-13 9.
        5     1     3     0   101     0  1.3473188276e+02  2.4836918751e+00  2.7285966665e+02  3.0435881232e+02  4.8000000000e+00 0. 9.
      -24     2     4     0     0     0 -2.1381191329e+02  4.0170571157e+01  1.3305914111e+02  2.6843980913e+02  8.3821161047e+01  9.719612e-15 9.
       -5     1     4     0     0   103  1.5515186453e+01  5.5367640586e-01  5.2186659206e+01  5.4658164691e+01  4.8000000000e+00 0. 9.
       -1     1     5     0     0   104  1.4541489977e+01  1.9000136668e+01  2.2140837569e+02  2.2269763773e+02  3.3000000000e-01 0. 9.
        2     1     5     0   104     0  4.9023354107e+01 -6.2208076105e+01  3.0058766393e+02  3.1084752949e+02  3.3000000000e-01 0. 9.
        3     1     7     0   105     0 -1.2322339655e+02 -1.8977531403e+01  7.7738108755e+01  1.4692724631e+02  5.0000000000e-01 0. 9.
       -2     1     7     0     0   105 -9.0588516749e+01  5.9148102560e+01  5.5321032358e+01  1.2151256283e+02  3.3000000000e-01 0. 9.
#pdf   21   21  1.647003e-01  1.391542e-02  2.647193e+02  3.655548e-01  6.244799e+00
</event>
<event>
    12  9999  1.000000e+00  1.890417e+02  7.882652e-03  1.064632e-01
       21    -1     0     0   101   102  0.0000000000e+00  0.0000000000e+00  5.1330143081e+02  5.1330143081e+02  0.0000000000e+00 0. 9.
       21    -1     0     0   103   101  0.0000000000e+00  0.0000000000e+00 -8.3943087616e+01  8.3943087616e+01  0.0000000000e+00 0. 9.
        6     2     1     2   103     0  1.0363350156e+02 -8.3876348994e+00  8.2174289846e+01  1.9641429429e+02  1.4496794827e+02  3.820814e-13 9.
       -6     2     1     2     0   102 -1.0363350156e+02  8.3876348994e+00  3.4718405335e+02  4.0083022413e+02  1.7122455027e+02  1.278738e-13 9.
       24     2     3     0     0     0  9.3792705750e+01  2.7896507599e+01  9.2282494861e+01  1.5718935239e+02  8.1345847205e+01  2.593480e-14 9.
        5     1     3     0   103     0  9.8407958093e+00 -3.6284142499e+01 -1.0108205016e+01  3.9224941908e+01  4.8000000000e+00 0. 9.
      -24     2     4     0     0     0  9.0329807294e+00  3.0126766844e+01  1.3441890052e+02  1.5904855331e+02  7.8985977684e+01  5.160164e-14 9.
       -5     1     4     0     0   102 -1.1266648229e+02 -2.1739131945e+01  2.1276515283e+02  2.4178167083e+02  4.8000000000e+00 0. 9.
      -13     1     5     0     0     0  9.1600877583e+01 -5.5894927207e+00  7.9027567717e+01  1.2110875619e+02  1.0566000000e-01  1.529306e+06 9.
       14     1     5     0     0     0  2.1918281667e+00  3.3486000320e+01  1.3254927144e+01  3.6080596195e+01  0.0000000000e+00 0. 9.
        1     1     7     0   104     0  2.3916611125e+01  3.0228828784e+01  1.3837538592e+02  1.4364415305e+02  3.3000000000e-01 0. 9.
       -2     1     7     0     0   104 -1.4883630395e+01 -1.0206193986e-01 -3.9564854037e+00  1.5404400252e+01  3.3000000000e-01 0. 9.
#pdf   21   21  7.896945e-02  1.291432e-02  1.783983e+02  1.125905e+00  6.641530e+00
</event>
<event>
    12  9999  1.000000e+00  2.162436e+02  7.894783e-03  1.047427e-01
       21    -1     0     0   101   102  0.0000000000e+00  0.0000000000e+00  8.5399596538e+01  8.5399596538e+01  0.0000000000e+00 0. 9.
       21    -1     0     0   103   101  0.0000000000e+00  0.0000000000e+00 -5.7046285151e+02  5.7046285151e+02  0.0000000000e+00 0. 9.
        6     2     1     2   103     0  1.2891755132e+02 -3.9149834885e+01 -3.0975618123e+02  3.7859978986e+02  1.7098673767e+02  2.057374e-14 9.
       -6     2     1     2     0   102 -1.2891755132e+02  3.9149834885e+01 -1.7530707374e+02  2.7726265819e+02  1.6730082759e+02  3.481033e-13 9.
       24     2     3     0     0     0  9.8669107058e+01  3.9207814932e+01 -1.7483535956e+02  2.1959803582e+02  7.9893985669e+01  7.518060e-14 9.
        5     1     3     0   103     0  3.0248444267e+01 -7.8357649817e+01 -1.3492082167e+02  1.5900175403e+02  4.8000000000e+00 0. 9.
      -24     2     4     0     0     0 -7.9895301574e+00  4.0881095554e+01 -5.1590291463e+01  1.0418618439e+02  8.0362343657e+01  4.804619e-13 9.
       -5     1     4     0     0   102 -1.2092802117e+02 -1.7312606687e+00 -1.2371678228e+02  1.7307647380e+02  4.8000000000e+00 0. 9.
       -1     1     5     0     0   104  1.8487962938e+01  4.8710638667e+01 -7.0869027506e+01  8.7960553958e+01  3.3000000000e-01 0. 9.
        2     1     5     0   104     0  8.0181144120e+01 -9.5028237352e+00 -1.0396633205e+02  1.3163748187e+02  3.3000000000e-01 0. 9.
        3     1     7     0   105     0  1.3392863785e+01 -1.8932507312e+01 -2.8117536047e+01  3.6450712844e+01  5.0000000000e-01 0. 9.
       -4     1     7     0     0   105 -2.1382393942e+01  5.9813602865e+01 -2.3472755416e+01  6.7735471543e+01  1.5000000000e+00 0. 9.
#pdf   21   21  1.313840e-02  8.776352e-02  2.148069e+02  6.551290e+00  9.669842e-01
</event>
<event>
    12  9999  1.000000e+00  1.659167e+02  7.870914e-03  1.082336e-01
       21    -1     0     0   101   102  0.0000000000e+00  0.0000000000e+00  9.0496780523e+02  9.0496780523e+02  0.0000000000e+00 0. 9.
       21    -1     0     0   103   101  0.0000000000e+00  0.0000000000e+00 -3.3694364245e+01  3.3694364245e+01  0.0000000000e+00 0. 9.
        6     2     1     2   103     0 -8.2784091718e+00 -3.2062977112e+00  3.1265336755e+02  3.5833516663e+02  1.7485179724e+02  2.337580e-13 9.
       -6     2     1     2     0   102  8.2784091718e+00  3.2062977112e+00  5.5862007343e+02  5.8032700284e+02  1.5698481260e+02  3.156168e-14 9.
       24     2     3     0     0     0  5.9733345915e+01  2.9977552882e+00  2.1858229025e+02  2.4198871551e+02  8.4872031155e+01  8.511132e-16 9.
        5     1     3     0   103     0 -6.8011755087e+01 -6.2040529994e+00  9.4071077306e+01  1.1634645112e+02  4.8000000000e+00 0. 9.
      -24     2     4     0     0     0 -3.4116564364e+01 -2.5715495815e+01  4.5308923023e+02  4.6288083309e+02  8.4519751583e+01  2.144707e-14 9.
       -5     1     4     0     0   102  4.2394973536e+01  2.8921793526e+01  1.0553084320e+02  1.1744616975e+02  4.8000000000e+00 0. 9.
       -1     1     5     0     0   104  8.1853758015e+00  3.8452127956e+01  1.0801746724e+02  1.1494976577e+02  3.3000000000e-01 0. 9.
        2     1     5     0   104     0  5.1547970114e+01 -3.5454372668e+01  1.1056482301e+02  1.2703894974e+02  3.3000000000e-01 0. 9.
       13     1     7     0     0     0 -1.5669413254e+01 -5.0571420629e+01  3.7757613882e+02  3.8126991865e+02  1.0566000000e-01  1.251349e+06 9.
      -14     1     7     0     0     0 -1.8447151110e+01  2.4855924814e+01  7.5513091406e+01  8.1610914442e+01  0.0000000000e+00 0. 9.
#pdf   21   21  1.392258e-01  5.183748e-03  1.572356e+02  5.188211e-01  1.299936e+01
</event>
<event>
    12  9999  1.000000e+00  2.548342e+02  7.909652e-03  1.027161e-01
       21    -1     0     0   101   102  0.0000000000e+00  0.0000000000e+00  5.6091216309e+02  5.6091216309e+02  0.0000000000e+00 0. 9.
       21    -1     0     0   103   101  0.0000000000e+00  0.0000000000e+00 -6.3353334386e+02  6.3353334386e+02  0.0000000000e+00 0. 9.
        6     2     1     2   103     0  9.5509357037e+01 -1.6306262358e+02 -5.7622094446e+02  6.3019779792e+02  1.7148536725e+02  2.196768e-14 9.
       -6     2     1     2     0   102 -9.5509357037e+01  1.6306262358e+02  5.0359976368e+02  5.6424770903e+02  1.7044441521e+02  6.109207e-14 9.
       24     2     3     0     0     0  8.3562533331e+01 -9.1525911305e+01 -5.1283234093e+02  5.3375412080e+02  8.0850245178e+01  7.768433e-14 9.
        5     1     3     0   103     0  1.1946823705e+01 -7.1536712275e+01 -6.3388603521e+01  9.6443677118e+01  4.8000000000e+00 0. 9.
      -24     2     4     0     0     0 -6.2432046370e+00  1.3051807268e+02  3.6785289910e+02  3.9848328281e+02  7.9995164858e+01  2.003266e-13 9.
       -5     1     4     0     0   102 -8.9266152400e+01  3.2544550899e+01  1.3574686458e+02  1.6576442622e+02  4.8000000000e+00 0. 9.
       -3     1     5     0     0   104 -1.2805662433e+01 -1.6352456707e+01 -3.6594213220e+01  4.2080568816e+01  5.0000000000e-01 0. 9.
        4     1     5     0   104     0  9.6368195765e+01 -7.5173454598e+01 -4.7623812771e+02  4.9167355198e+02  1.5000000000e+00 0. 9.
        3     1     7     0   105     0 -4.0036236918e+01  8.4694897360e+01  1.9198649473e+02  2.1362394544e+02  5.0000000000e-01 0. 9.
       -4     1     7     0     0   105  3.3793032281e+01  4.5823175320e+01  1.7586640437e+02  1.8485933737e+02  1.5000000000e+00 0. 9.
#pdf   21   21  8.629418e-02  9.746667e-02  2.544853e+02  9.726297e-01  8.259640e-01
</event>
<event>
    12  9999  1.000000e+00  1.727895e+02  7.874561e-03  1.076460e-01
       21    -1     0     0   101   102  0.0000000000e+00  0.0000000000e+00  2.3747378017e+01  2.3747378017e+01  0.0000000000e+00 0. 9.
       21    -1     0     0   102   103  0.0000000000e+00  0.0000000000e+00 -1.4622875182e+03  1.4622875182e+03  0.0000000000e+00 0. 9.
        6     2     1     2   101     0 -6.9603804345e+01 -6.1857550014e-01 -4.7056826363e+02  5.0405727405e+02  1.6671584378e+02  6.718596e-13 9.
       -6     2     1     2     0   103  6.9603804345e+01  6.1857550014e-01 -9.6797187654e+02  9.8197762216e+02  1.4988470379e+02  2.447075e-14 9.
       24     2     3     0     0     0  2.0115768695e+01 -1.2131836110e+01 -2.4997191969e+02  2.6558726773e+02  8.6595672788e+01  5.177435e-14 9.
        5     1     3     0   101     0 -8.9719573039e+01  1.1513260610e+01 -2.2059634394e+02  2.3847000632e+02  4.8000000000e+00 0. 9.
      -24     2     4     0     0     0  4.8748163161e+01 -5.3075111616e+01 -5.7690967179e+02  5.8666678523e+02  7.8484371732e+01  1.592431e-13 9.
       -5     1     4     0     0   103  2.0855641183e+01  5.3693687116e+01 -3.9106220476e+02  3.9531083693e+02  4.8000000000e+00 0. 9.
       -1     1     5     0     0   104  7.9400058642e-02  3.0122219243e+01 -1.7237829596e+02  1.7499068608e+02  3.3000000000e-01 0. 9.
        2     1     5     0   104     0  2.0036368636e+01 -4.2254055354e+01 -7.7593623730e+01  9.0596581643e+01  3.3000000000e-01 0. 9.
       11     1     7     0     0     0  2.5427258340e+01 -4.0254356268e+00 -4.3858008510e+01  5.0855427531e+01  5.1100000000e-04 0. 9.
      -12     1     7     0     0     0  2.3320904821e+01 -4.9049675989e+01 -5.3305166328e+02  5.3581135770e+02  0.0000000000e+00 0. 9.
#pdf   21   21  3.653443e-03  2.249673e-01  1.652589e+02  1.651843e+01  2.173431e-01
</event>
<event>
    12  9999  1.000000e+00  1.830377e+02  7.879745e-03  1.068849e-01
       21    -1     0     0   101   102  0.0000000000e+00  0.0000000000e+00  9.4494436144e+01  9.4494436144e+01  0.0000000000e+00 0. 9.
       21    -1     0     0   103   101  0.0000000000e+00  0.0000000000e+00 -1.0688801305e+03  1.0688801305e+03  0.0000000000e+00 0. 9.
        6     2     1     2   103     0 -5.6215341571e+01 -3.2810421266e+01 -9.6270702623e+02  9.7995016854e+02  1.7105796124e+02  4.874222e-14 9.
       -6     2     1     2     0   102  5.6215341571e+01  3.2810421266e+01 -1.1678668166e+01  1.8342439814e+02  1.7108895397e+02  9.295848e-14 9.
       24     2     3     0     0     0 -1.0411822373e+02 -2.5565813452e+01 -7.1316712170e+02  7.2570545491e+02  8.0912597730e+01  1.070640e-13 9.
        5     1     3     0   103     0  4.7902882158e+01 -7.2446078139e+00 -2.4953990453e+02  2.5424471364e+02  4.8000000000e+00 0. 9.
      -24     2     4     0     0     0  5.7511584959e+01 -2.9743322108e+01  2.8037054299e+00  1.1902385310e+02  9.9832706200e+01  3.139241e-13 9.
       -5     1     4     0     0   102 -1.2962433882e+00  6.2553743374e+01 -1.4482373596e+01  6.4400545044e+01  4.8000000000e+00 0. 9.
       -3     1     5     0     0   104 -9.3031543025e+00 -1.8247877771e+01 -3.2454786864e+01  3.8380944666e+01  5.0000000000e-01 0. 9.
        4     1     5     0   104     0 -9.4815069426e+01 -7.3179356813e+00 -6.8071233484e+02  6.8732451024e+02  1.5000000000e+00 0. 9.
        1     1     7     0   105     0  5.1536281610e+01  2.8639238461e+01 -7.5082572897e+00  5.9436328363e+01  3.3000000000e-01 0. 9.
       -2     1     7     0     0   105  5.9753033495e+00 -5.8382560569e+01  1.0311962720e+01  5.9587524733e+01  3.3000000000e-01 0. 9.
#pdf   21   21  1.453761e-02  1.644431e-01  1.830233e+02  6.037910e+00  3.872870e-01
</event>
<event>
    12  9999  1.000000e+00  2.547539e+02  7.909623e-03  1.027199e-01
       21    -1     0     0   101   102  0.0000000000e+00  0.0000000000e+00  2.2445924329e+02  2.2445924329e+02  0.0000000000e+00 0. 9.
       21    -1     0     0   103   101  0.0000000000e+00  0.0000000000e+00 -2.9846492954e+02  2.9846492954e+02  0.0000000000e+00 0. 9.
        6     2     1     2   103     0 -1.0605790043e+02  1.5610314427e+02 -8.3263039992e+01  2.6828263681e+02  1.7154115976e+02  1.393535e-13 9.
       -6     2     1     2     0   102  1.0605790043e+02 -1.5610314427e+02  9.2573537481e+00  2.5464153602e+02  1.7070484285e+02  2.857206e-14 9.
       24     2     3     0     0     0 -8.1679582484e+00  2.4218525492e+01 -5.9227995354e+01  1.0222024847e+02  7.9295467997e+01  8.852110e-14 9.
        5     1     3     0   103     0 -9.7889942186e+01  1.3188461877e+02 -2.4035044638e+01  1.6606238834e+02  4.8000000000e+00 0. 9.
      -24     2     4     0     0     0  1.0328679365e+02 -1.6578575475e+02 -3.0319754026e+01  2.1352196114e+02  8.0741948097e+01  1.241151e-14 9.
       -5     1     4     0     0   102  2.7711067821e+00  9.6826104861e+00  3.9577107774e+01  4.1119574881e+01  4.8000000000e+00 0. 9.
       -1     1     5     0     0   104 -1.0469733095e+01  1.8680622883e+01  1.6012018801e+01  2.6740879351e+01  3.3000000000e-01 0. 9.
        2     1     5     0   104     0  2.3017748464e+00  5.5379026082e+00 -7.5240014155e+01  7.5479369120e+01  3.3000000000e-01 0. 9.
       11     1     7     0     0     0  3.4031288108e+01 -4.0083987002e+01  2.6845647772e+01  5.9038490739e+01  5.1100000000e-04 0. 9.
      -12     1     7     0     0     0  6.9255505545e+01 -1.2570176775e+02 -5.7165401798e+01  1.5448347040e+02  0.0000000000e+00 0. 9.
#pdf   21   21  3.453219e-02  4.591768e-02  2.544732e+02  2.755524e+00  2.052823e+00
</event>
<event>
    12  9999  1.000000e+00  2.314767e+02  7.900940e-03  1.038928e-01
       21    -1     0     0   101   102  0.0000000000e+00  0.0000000000e+00  1.9195269194e+02  1.9195269194e+02  0.0000000000e+00 0. 9.
       21    -1     0     0   103   101  0.0000000000e+00  0.0000000000e+00 -3.6204049869e+02  3.6204049869e+02  0.0000000000e+00 0. 9.
        6     2     1     2   103     0  5.3909510142e+01  1.4281246044e+02 -2.1699257635e+02  3.1579916489e+02  1.7129419201e+02  2.305882e-14 9.
       -6     2     1     2     0   102 -5.3909510142e+01 -1.4281246044e+02  4.6904769607e+01  2.3819402574e+02  1.7673342169e+02  3.153272e-14 9.
       24     2     3     0     0     0  7.2227121403e+01  5.9414817747e+01 -1.8996138917e+02  2.2610843644e+02  7.9327284232e+01  1.983946e-14 9.
        5     1     3     0   103     0 -1.8317611260e+01  8.3397642693e+01 -2.7031187184e+01  8.9690728448e+01  4.8000000000e+00 0. 9.
      -24     2     4     0     0     0 -8.3298414552e+01 -1.6118891347e+02  3.8746794748e+01  2.0226361686e+02  8.0552870281e+01  3.820999e-14 9.
       -5     1     4     0     0   102  2.9388904410e+01  1.8376453027e+01  8.1579748582e+00  3.5930408877e+01  4.8000000000e+00 0. 9.
       -1     1     5     0     0   104  5.6192610890e+01  3.9400131461e+01 -5.2855886070e+01  8.6624670101e+01  3.3000000000e-01 0. 9.
        2     1     5     0   104     0  1.6034510513e+01  2.0014686286e+01 -1.3710550310e+02  1.3948376634e+02  3.3000000000e-01 0. 9.
       11     1     7     0     0     0 -5.7394881013e+00 -9.7343311468e+01  1.1577851663e+01  9.8197294569e+01  5.1100000000e-04 0. 9.
      -12     1     7     0     0     0 -7.7558926451e+01 -6.3845601998e+01  2.7168943085e+01  1.0406632229e+02  0.0000000000e+00 0. 9.
#pdf   21   21  2.953118e-02  5.569854e-02  2.294414e+02  3.223329e+00  1.670948e+00
</event>
<event>
    12  9999  1.000000e+00  1.852942e+02  7.880849e-03  1.067244e-01
       21    -1     0     0   101   102  0.0000000000e+00  0.0000000000e+00  1.0074545454e+02  1.0074545454e+02  0.0000000000e+00 0. 9.
       21    -1     0     0   102   103  0.0000000000e+00  0.0000000000e+00 -6.1025947950e+02  6.1025947950e+02  0.0000000000e+00 0. 9.
        6     2     1     2   101     0  6.6463884794e+01  2.2415614861e+01 -2.0037236262e+01  1.8830817961e+02  1.7360464250e+02  3.121132e-13 9.
       -6     2     1     2     0   103 -6.6463884794e+01 -2.2415614861e+01 -4.8947678870e+02  5.2269675444e+02  1.6942391405e+02  2.651034e-14 9.
       24     2     3     0     0     0  6.1917605350e+01  7.8830602661e+01 -1.1684687458e+00  1.2845511041e+02  8.0319962039e+01  2.067490e-14 9.
        5     1     3     0   101     0  4.5462794445e+00 -5.6414987799e+01 -1.8868767516e+01  5.9853069201e+01  4.8000000000e+00 0. 9.
      -24     2     4     0     0     0 -3.2643742884e+00 -6.1445512378e+01 -2.0529380319e+02  2.2892725248e+02  8.0473189126e+01  1.223697e-13 9.
       -5     1     4     0     0   103 -6.3199510506e+01  3.9029897516e+01 -2.8418298551e+02  2.9376950196e+02  4.8000000000e+00 0. 9.
       -3     1     5     0     0   104  7.7065950139e+01  4.0291588544e+01  8.6531785120e-01  8.6968796435e+01  5.0000000000e-01 0. 9.
        4     1     5     0   104     0 -1.5148344790e+01  3.8539014116e+01 -2.0337865970e+00  4.1486313970e+01  1.5000000000e+00 0. 9.
        1     1     7     0   105     0 -2.1069921146e+01 -6.4340746192e+01 -1.9836404793e+02  2.0959980346e+02  3.3000000000e-01 0. 9.
       -2     1     7     0     0   105  1.7805546858e+01  2.8952338143e+00 -6.9297552610e+00  1.9327449023e+01  3.3000000000e-01 0. 9.
#pdf   21   21  1.549930e-02  9.388607e-02  1.833695e+02  5.729361e+00  8.984284e-01
</event>
<event>
    12  9999  1.000000e+00  2.661802e+02  7.913605e-03  1.021918e-01
       21    -1     0     0   101   102  0.0000000000e+00  0.0000000000e+00  1.4236269584e+02  1.4236269584e+02  0.0000000000e+00 0. 9.
       21    -1     0     0   102   103  0.0000000000e+00  0.0000000000e+00 -5.0991751865e+02  5.0991751865e+02  0.0000000000e+00 0. 9.
        6     2     1     2   101     0 -1.6695050135e+02 -1.1788154480e+02 -1.3311057013e+02  2.9740154728e+02  1.7017851785e+02  1.467324e-14 9.
       -6     2     1     2     0   103  1.6695050135e+02  1.1788154480e+02 -2.3444425269e+02  3.5487866721e+02  1.7089830987e+02  1.299064e-13 9.
       24     2     3     0     0     0 -9.3414289442e+01 -3.7092625925e+01 -5.5458904127e+00  1.2938306203e+02  8.1284238755e+01  4.850591e-14 9.
        5     1     3     0   101     0 -7.3536211909e+01 -8.0788918877e+01 -1.2756467971e+02  1.6801848525e+02  4.8000000000e+00 0. 9.
      -24     2     4     0     0     0  4.8467178498e+01  1.1111067672e+02 -9.8068859877e+01  1.7403224006e+02  7.7298573273e+01  1.010544e-13 9.
       -5     1     4     0     0   103  1.1848332285e+02  6.7708680811e+00 -1.3637539281e+02  1.8084642715e+02  4.8000000000e+00 0. 9.
       -1     1     5     0     0   104 -6.1159845093e+01 -5.6920392044e+01 -2.4462990388e+01  8.7057478030e+01  3.3000000000e-01 0. 9.
        2     1     5     0   104     0 -3.2254444349e+01  1.9827766118e+01  1.8917099975e+01  4.2325584001e+01  3.3000000000e-01 0. 9.
        1     1     7     0   105     0  4.6771092845e+00 -1.0996361943e+01 -1.7939448913e+01  2.1557552146e+01  3.3000000000e-01 0. 9.
       -2     1     7     0     0   105  4.3790069213e+01  1.2210703866e+02 -8.0129410964e+01  1.5247468791e+02  3.3000000000e-01 0. 9.
#pdf   21   21  2.190195e-02  7.844885e-02  2.659497e+02  4.229258e+00  1.095620e+00
</event>
<event>
    12  9999  1.000000e+00  2.113412e+02  7.892711e-03  1.050322e-01
       21    -1     0     0   101   102  0.0000000000e+00  0.0000000000e+00  3.5033077807e+02  3.5033077807e+02  0.0000000000e+00 0. 9.
       21    -1     0     0   102   103  0.0000000000e+00  0.0000000000e+00 -1.2798265915e+02  1.2798265915e+02  0.0000000000e+00 0. 9.
        6     2     1     2   101     0  6.6128701586e+01 -1.0477196268e+02  1.2592769224e+02  2.4597540390e+02  1.7116058633e+02  3.811793e-13 9.
       -6     2     1     2     0   103 -6.6128701586e+01  1.0477196268e+02  9.6420426680e+01  2.3233803332e+02  1.7127140365e+02  1.241481e-14 9.
       24     2     3     0     0     0  6.6429860611e+01 -1.3681820764e+02  1.2470550592e+02  2.1354723324e+02  8.3179380212e+01  2.133083e-13 9.
        5     1     3     0   101     0 -3.0115902502e-01  3.2046244963e+01  1.2221863128e+00  3.2428170660e+01  4.8000000000e+00 0. 9.
      -24     2     4     0     0     0 -3.3851076223e+01 -7.0792520601e-01  9.0389245800e+01  1.2176106018e+02  7.4223604733e+01  6.129335e-14 9.
       -5     1     4     0     0   103 -3.2277625363e+01  1.0547988788e+02  6.0311808792e+00  1.1057697314e+02  4.8000000000e+00 0. 9.
      -11     1     5     0     0     0  2.4252288807e+01 -1.2700568328e+02  1.0175247180e+02  1.6453626535e+02  5.1100000000e-04 0. 9.
       12     1     5     0     0     0  4.2177571804e+01 -9.8125243586e+00  2.2953034127e+01  4.9010967887e+01  0.0000000000e+00 0. 9.
       13     1     7     0     0     0 -2.0935600523e+01  3.1184317472e+01  7.5384571920e+01  8.4223547023e+01  1.0566000000e-01  7.033712e+04 9.
      -14     1     7     0     0     0 -1.2915475700e+01 -3.1892242678e+01  1.5004673880e+01  3.7537513154e+01  0.0000000000e+00 0. 9.
#pdf   21   21  5.389704e-02  1.968964e-02  2.112963e+02  1.743748e+00  4.671616e+00
</event>
<event>
    12  9999  1.000000e+00  3.027753e+02  7.925320e-03  1.006724e-01
       21    -1     0     0   101   102  0.0000000000e+00  0.0000000000e+00  1.5188650230e+02  1.5188650230e+02  0.0000000000e+00 0. 9.
       21    -1     0     0   103   101  0.0000000000e+00  0.0000000000e+00 -9.5126884356e+02  9.5126884356e+02  0.0000000000e+00 0. 9.
        6     2     1     2   103     0 -9.9878535489e+01  2.2925550740e+02 -7.3328948166e+02  7.9339546929e+02  1.7096519311e+02  1.005619e-13 9.
       -6     2     1     2     0   102  9.9878535489e+01 -2.2925550740e+02 -6.6092859600e+01  3.0975987657e+02  1.7043798144e+02  3.804258e-15 9.
       24     2     3     0     0     0 -4.0629099483e+01  5.1340632606e+01 -3.7396057534e+02  3.8805055288e+02  8.0312735012e+01  7.349744e-14 9.
        5     1     3     0   103     0 -5.9249436006e+01  1.7791487479e+02 -3.5932890632e+02  4.0534491641e+02  4.8000000000e+00 0. 9.
      -24     2     4     0     0     0  8.6360356441e+01 -2.1057459212e+02 -1.0707318017e+02  2.6249313949e+02  7.5088030709e+01  1.209231e-13 9.
       -5     1     4     0     0   102  1.3518179048e+01 -1.8680915278e+01  4.0980320570e+01  4.7266737082e+01  4.8000000000e+00 0. 9.
       -1     1     5     0     0   104 -1.8355957781e+01 -1.8410128738e+01 -5.5607060237e+01  6.1385080227e+01  3.3000000000e-01 0. 9.
        2     1     5     0   104     0 -2.2273141702e+01  6.9750761344e+01 -3.1835351510e+02  3.2666547266e+02  3.3000000000e-01 0. 9.
       13     1     7     0     0     0  5.2077893147e+01 -1.9466465797e+02 -8.4820378289e+01  2.1863426940e+02  1.0566000000e-01  6.168544e+05 9.
      -14     1     7     0     0     0  3.4282463294e+01 -1.5909934147e+01 -2.2252801880e+01  4.3858870090e+01  0.0000000000e+00 0. 9.
#pdf   21   21  2.336715e-02  1.463491e-01  3.026267e+02  3.973770e+00  4.389465e-01
</event>
<event>
    12  9999  1.000000e+00  1.707030e+02  7.873469e-03  1.078105e-01
       21    -1     0     0   101   102  0.0000000000e+00  0.0000000000e+00  5.6725686510e+02  5.6725686510e+02  0.0000000000e+00 0. 9.
       21    -1     0     0   103   101  0.0000000000e+00  0.0000000000e+00 -5.1549091746e+01  5.1549091746e+01  0.0000000000e+00 0. 9.
        6     2     1     2   103     0  1.6804188038e+01  5.5777840276e+00  2.7476460169e+02  3.2301954466e+02  1.6891579997e+02  8.545440e-14 9.
       -6     2     1     2     0   102 -1.6804188038e+01 -5.5777840276e+00  2.4094317166e+02  2.9578641219e+02  1.7065314897e+02  3.421670e-13 9.
       24     2     3     0     0     0  4.9584032150e+01  5.2830665637e+01  2.0672551301e+02  2.3380233450e+02  8.1721713220e+01  1.804354e-13 9.
        5     1     3     0   103     0 -3.2779844112e+01 -4.7252881609e+01  6.8039088681e+01  8.9217210161e+01  4.8000000000e+00 0. 9.
      -24     2     4     0     0     0 -2.0169440692e+01  4.7174779942e+01  2.1689994843e+02  2.3751742803e+02  8.2077248920e+01  1.981439e-13 9.
       -5     1     4     0     0   102  3.3652526543e+00 -5.2752563969e+01  2.4043223232e+01  5.8268984153e+01  4.8000000000e+00 0. 9.
       -3     1     5     0     0   104  2.5873776950e+01 -1.1907265907e+01  2.0155906687e+01  3.4896215975e+01  5.0000000000e-01 0. 9.
        4     1     5     0   104     0  2.3710255200e+01  6.4737931543e+01  1.8656960632e+02  1.9890611852e+02  1.5000000000e+00 0. 9.
        1     1     7     0   105     0  9.5084678772e+00  1.4835717836e+01  1.4972055697e+00  1.7687849208e+01  3.3000000000e-01 0. 9.
       -2     1     7     0     0   105 -2.9677908570e+01  3.2339062106e+01  2.1540274286e+02  2.1982957883e+02  3.3000000000e-01 0. 9.
#pdf   21   21  8.727029e-02  7.930629e-03  1.698412e+02  9.959713e-01  9.632261e+00
</event>
<event>
    12  9999  1.000000e+00  1.768276e+02  7.876639e-03  1.073395e-01
       21    -1     0     0   101   102  0.0000000000e+00  0.0000000000e+00  4.8258777792e+01  4.8258777792e+01  0.0000000000e+00 0. 9.
       21    -1     0     0   102   103  0.0000000000e+00  0.0000000000e+00 -8.0335062207e+02  8.0335062207e+02  0.0000000000e+00 0. 9.
        6     2     1     2   101     0  1.0752266479e+01 -4.3270937623e+01 -1.9095126700e+02  2.6052566470e+02  1.7153206791e+02  1.312393e-13 9.
       -6     2     1     2     0   103 -1.0752266479e+01  4.3270937623e+01 -5.6414057728e+02  5.9108373516e+02  1.7069682412e+02  1.535394e-13 9.
       24     2     3     0     0     0  2.7084588993e+01 -5.1890990345e+01 -2.1088653922e+02  2.3293028200e+02  7.9731637452e+01  1.654352e-13 9.
        5     1     3     0   101     0 -1.6332322514e+01  8.6200527223e+00  1.9935272220e+01  2.7595382696e+01  4.8000000000e+00 0. 9.
      -24     2     4     0     0     0 -4.7363799122e+01 -1.1451628032e+01 -1.8594068643e+02  2.0716556555e+02  7.7260361317e+01  6.838631e-15 9.
       -5     1     4     0     0   103  3.6611532643e+01  5.4722565655e+01 -3.7819989085e+02  3.8391816961e+02  4.8000000000e+00 0. 9.
       -1     1     5     0     0   104  4.1763448926e+01 -6.3948015147e+01 -1.3929527725e+02  1.5886100047e+02  3.3000000000e-01 0. 9.
        2     1     5     0   104     0 -1.4678859933e+01  1.2057024802e+01 -7.1591261972e+01  7.4069281533e+01  3.3000000000e-01 0. 9.
       11     1     7     0     0     0 -2.5057266825e+01 -3.8662573407e+01 -5.5851458476e+01  7.2401979375e+01  5.1100000000e-04 0. 9.
      -12     1     7     0     0     0 -2.2306532297e+01  2.7210945375e+01 -1.3008922795e+02  1.3476358618e+02  0.0000000000e+00 0. 9.
#pdf   21   21  7.424427e-03  1.235924e-01  1.764239e+02  1.011974e+01  6.130804e-01
</event>
<event>
    12  9999  1.000000e+00  1.711216e+02  7.873689e-03  1.077752e-01
       21    -1     0     0   101   102  0.0000000000e+00  0.0000000000e+00  5.8607321886e+02  5.8607321886e+02  0.0000000000e+00 0. 9.
       21    -1     0     0   103   101  0.0000000000e+00  0.0000000000e+00 -6.3614641371e+01  6.3614641371e+01  0.0000000000e+00 0. 9.
        6     2     1     2   103     0  5.1091442597e+00  5.8948523619e+00  1.1100214207e+02  2.0414579674e+02  1.7115249966e+02  4.215163e-13 9.
       -6     2     1     2     0   102 -5.1091442597e+00 -5.8948523619e+00  4.1145643542e+02  4.4554206349e+02  1.7073511490e+02  2.496227e-14 9.
       24     2     3     0     0     0 -2.2162939036e+01 -5.7910949670e+01  7.2393511258e+01  1.2459321492e+02  8.0235744986e+01  1.321794e-13 9.
        5     1     3     0   103     0  2.7272083296e+01  6.3805802032e+01  3.8608630816e+01  7.9552581817e+01  4.8000000000e+00 0. 9.
      -24     2     4     0     0     0 -3.0169878696e+01  8.8834504985e+00  9.8160060331e+01  1.3086111827e+02  8.0623182506e+01  1.569943e-15 9.
       -5     1     4     0     0   102  2.5060734437e+01 -1.4778302860e+01  3.1329637508e+02  3.1468094522e+02  4.8000000000e+00 0. 9.
      -15     1     5     0     0     0  1.8212386642e+01 -3.5704918590e+00  4.9878634321e+01  5.3249175490e+01  1.7768200000e+00  6.753022e-02 9.
       16     1     5     0     0     0 -4.0375325678e+01 -5.4340457811e+01  2.2514876937e+01  7.1344039430e+01  0.0000000000e+00 0. 9.
        1     1     7     0   104     0 -3.2094156144e+01  3.9988662422e+01  4.0593672815e+01  6.5399412486e+01  3.3000000000e-01 0. 9.
       -2     1     7     0     0   104  1.9242774476e+00 -3.1105211924e+01  5.7566387516e+01  6.5461705784e+01  3.3000000000e-01 0. 9.
#pdf   21   21  9.016511e-02  9.786868e-03  1.709132e+02  9.540719e-01  8.233729e+00
</event>
<event>
    12  9999  1.000000e+00  1.879616e+02  7.882136e-03  1.065378e-01
       -1    -1     0     0     0   101  0.0000000000e+00  0.0000000000e+00  6.7615293020e+02  6.7615293020e+02  0.0000000000e+00 0. 9.
        1    -1     0     0   102     0  0.0000000000e+00  0.0000000000e+00 -5.3420416364e+01  5.3420416364e+01  0.0000000000e+00 0. 9.
       -6     2     1     2     0   101 -7.7083806618e+01 -1.8345043274e+00  3.6645308673e+02  4.1216500147e+02  1.7218259207e+02  2.529607e-13 9.
        6     2     1     2   102     0  7.7083806618e+01  1.8345043274e+00  2.5627942710e+02  3.1740834510e+02  1.7065647990e+02  1.282956e-14 9.
      -24     2     3     0     0     0 -1.1157199444e+02  2.2229069404e+01  3.2136638921e+02  3.5032374523e+02  8.0671735382e+01  8.302669e-14 9.
       -5     1     3     0     0   101  3.4488187819e+01 -2.4063573731e+01  4.5086697522e+01  6.1841256239e+01  4.8000000000e+00 0. 9.
       24     2     4     0     0     0  2.8626639399e+01 -4.1401555971e+01  2.3115664621e+02  2.4761115257e+02  7.3104818373e+01  9.780031e-15 9.
        5     1     4     0   102     0  4.8457167218e+01  4.3236060298e+01  2.5122780897e+01  6.9797192529e+01  4.8000000000e+00 0. 9.
        1     1     5     0   103     0 -1.3130491771e+01  1.8657990850e+01  1.2264177606e+01  2.5904620998e+01  3.3000000000e-01 0. 9.
       -2     1     5     0     0   103 -9.8441502666e+01  3.5710785534e+00  3.0910221160e+02  3.2441912423e+02  3.3000000000e-01 0. 9.
       -1     1     7     0     0   104 -1.9606474244e+01 -1.3375503072e+01  1.2946741206e+02  1.3162536837e+02  3.3000000000e-01 0. 9.
        2     1     7     0   104     0  4.8233113643e+01 -2.8026052898e+01  1.0168923415e+02  1.1598578419e+02  3.3000000000e-01 0. 9.
#pdf   -1    1  1.040235e-01  8.218526e-03  1.872670e+02  9.023601e-02  7.286595e-01
</event>
<event>
    12  9999  1.000000e+00  5.032235e+02  7.971862e-03  9.510134e-02
       21    -1     0     0   101   102  0.0000000000e+00  0.0000000000e+00  4.8846131666e+02  4.8846131666e+02  0.0000000000e+00 0. 9.
       21    -1     0     0   102   103  0.0000000000e+00  0.0000000000e+00 -5.6213955322e+02  5.6213955322e+02  0.0000000000e+00 0. 9.
        6     2     1     2   101     0  4.5781848211e+02  1.2250711997e+02  1.0963645577e+02  5.1502653297e+02  1.6919344026e+02  5.874560e-13 9.
       -6     2     1     2     0   103 -4.5781848211e+02 -1.2250711997e+02 -1.8331469233e+02  5.3557433691e+02  1.6920353701e+02  5.376535e-13 9.
       24     2     3     0     0     0  3.5506475845e+02  3.2366713076e+01  9.1276337354e+01  3.7702742200e+02  8.1851819586e+01  7.944075e-14 9.
        5     1     3     0   101     0  1.0275372366e+02  9.0140406895e+01  1.8360118415e+01  1.3799911097e+02  4.8000000000e+00 0. 9.
      -24     2     4     0     0     0 -9.9929944006e+01 -5.2943836667e+01 -6.3456552856e+01  1.5176153139e+02  7.8840248344e+01  9.864615e-14 9.
       -5     1     4     0     0   103 -3.5788853810e+02 -6.9563283305e+01 -1.1985813947e+02  3.8381280553e+02  4.8000000000e+00 0. 9.
       -3     1     5     0     0   104  6.0196714831e+01 -9.7226145027e+00 -1.1264686320e+01  6.2010618987e+01  5.0000000000e-01 0. 9.
        4     1     5     0   104     0  2.9486804362e+02  4.2089327579e+01  1.0254102367e+02  3.1501680301e+02  1.5000000000e+00 0. 9.
        1     1     7     0   105     0 -6.6017110514e+01 -6.1281104658e+01 -1.3910938359e+01  9.1144148330e+01  3.3000000000e-01 0. 9.
       -2     1     7     0     0   105 -3.3912833493e+01  8.3372679914e+00 -4.9545614497e+01  6.0617383059e+01  3.3000000000e-01 0. 9.
#pdf   21   21  7.514789e-02  8.648301e-02  5.032218e+02  1.096031e+00  9.104248e-01
</event>
<event>
    12  9999  1.000000e+00  1.744237e+02  7.875408e-03  1.075209e-01
       21    -1     0     0   101   102  0.0000000000e+00  0.0000000000e+00  3.6881782994e+02  3.6881782994e+02  0.0000000000e+00 0. 9.
       21    -1     0     0   102   103  0.0000000000e+00  0.0000000000e+00 -8.3786930958e+01  8.3786930958e+01  0.0000000000e+00 0. 9.
        6     2     1     2   101     0 -2.3944470623e+01  2.0098659519e+01  1.7048320793e+02  2.4373237918e+02  1.7135826414e+02  4.976226e-14 9.
       -6     2     1     2     0   103  2.3944470623e+01 -2.0098659519e+01  1.1454769106e+02  2.0887238172e+02  1.7184063702e+02  2.206929e-13 9.
       24     2     3     0     0     0  5.1215131548e+01  1.3647982988e+01  7.7365892418e+01  1.2379718220e+02  8.0814626600e+01  5.208056e-14 9.
        5     1     3     0   101     0 -7.5159602171e+01  6.4506765310e+00  9.3117315510e+01  1.1993519698e+02  4.8000000000e+00 0. 9.
      -24     2     4     0     0     0 -1.3413475002e+01 -6.8900850323e+01  4.3045292503e+01  1.1446420979e+02  7.9510437232e+01  6.466374e-14 9.
       -5     1     4     0     0   103  3.7357945625e+01  4.8802190804e+01  7.1502398554e+01  9.4408171932e+01  4.8000000000e+00 0. 9.
      -15     1     5     0     0     0  6.1022965414e+01 -1.6831688345e+01  6.0616846356e+01  8.7662233556e+01  1.7768200000e+00  2.679869e-02 9.
       16     1     5     0     0     0 -9.8078338655e+00  3.0479671334e+01  1.6749046062e+01  3.6134948647e+01  0.0000000000e+00 0. 9.
        3     1     7     0   104     0 -1.5895468500e+01 -5.4855413059e+01  6.6072423883e+01  8.7336117720e+01  5.0000000000e-01 0. 9.
       -4     1     7     0     0   104  2.4819934978e+00 -1.4045437264e+01 -2.3027131380e+01  2.7128092068e+01  1.5000000000e+00 0. 9.
#pdf   21   21  5.674120e-02  1.289030e-02  1.741865e+02  1.667965e+00  6.650448e+00
</event>
<event>
    12  9999  1.000000e+00  2.283334e+02  7.899703e-03  1.040624e-01
       21    -1     0     0   101   102  0.0000000000e+00  0.0000000000e+00  2.0899223602e+02  2.0899223602e+02  0.0000000000e+00 0. 9.
       21    -1     0     0   102   103  0.0000000000e+00  0.0000000000e+00 -2.5728046374e+02  2.5728046374e+02  0.0000000000e+00 0. 9.
        6     2     1     2   101     0  1.4466614146e+02 -2.7970725575e+01  1.6656808292e+01  2.2669496857e+02  1.7147158814e+02  1.451346e-13 9.
       -6     2     1     2     0   103 -1.4466614146e+02  2.7970725575e+01 -6.4945036005e+01  2.3957773120e+02  1.7739497628e+02  2.484602e-13 9.
       24     2     3     0     0     0  1.0950615657e+02  3.4696375513e+01 -2.5709868262e+01  1.4314040329e+02  8.1441641240e+01  1.184825e-13 9.
        5     1     3     0   101     0  3.5159984885e+01 -6.2667101088e+01  4.2366676554e+01  8.3554565274e+01  4.8000000000e+00 0. 9.
      -24     2     4     0     0     0 -1.4083555051e+02 -2.5431252482e+01 -7.0466021975e+01  1.8554102170e+02  9.4755525373e+01  3.299346e-14 9.
       -5     1     4     0     0   103 -3.8305909460e+00  5.3401978057e+01  5.5209859702e+00  5.4036709499e+01  4.8000000000e+00 0. 9.
       -1     1     5     0     0   104  2.4625494239e+01  4.7084474407e+01 -2.1261357810e+01  5.7232131994e+01  3.3000000000e-01 0. 9.
        4     1     5     0   104     0  8.4880662333e+01 -1.2388098894e+01 -4.4485104523e+00  8.5908271299e+01  1.5000000000e+00 0. 9.
        1     1     7     0   105     0 -8.7024169756e+01 -5.1868648736e+01 -7.4035767348e+01  1.2547894879e+02  3.3000000000e-01 0. 9.
       -2     1     7     0     0   105 -5.3811380755e+01  2.6437396253e+01  3.5697453732e+00  6.0062072903e+01  3.3000000000e-01 0. 9.
#pdf   21   21  3.215265e-02  3.958161e-02  2.260822e+02  2.971686e+00  2.415107e+00
</event>
<event>
    12  9999  1.000000e+00  1.860812e+02  7.881230e-03  1.066690e-01
       21    -1     0     0   101   102  0.0000000000e+00  0.0000000000e+00  1.8216409414e+02  1.8216409414e+02  0.0000000000e+00 0. 9.
       21    -1     0     0   103   101  0.0000000000e+00  0.0000000000e+00 -3.7129157858e+02  3.7129157858e+02  0.0000000000e+00 0. 9.
        6     2     1     2   103     0 -6.7189187721e+01 -2.8541715363e+01 -2.8784570819e+02  3.4266872999e+02  1.7099032231e+02  8.795661e-16 9.
       -6     2     1     2     0   102  6.7189187721e+01  2.8541715363e+01  9.8718223750e+01  2.1078694274e+02  1.7133835259e+02  1.639531e-13 9.
       24     2     3     0     0     0  1.6159462321e+01 -4.1118130328e+01 -9.7068820570e+01  1.3404460739e+02  8.1202044189e+01  1.331698e-13 9.
        5     1     3     0   103     0 -8.3348650042e+01  1.2576414965e+01 -1.9077688762e+02  2.0862412259e+02  4.8000000000e+00 0. 9.
      -24     2     4     0     0     0 -1.2985355630e+00  4.9355745551e+01  3.9682906871e+00  9.1940899857e+01  7.7457768636e+01  9.544717e-14 9.
       -5     1     4     0     0   102  6.8487723284e+01 -2.0814030188e+01  9.4749933063e+01  1.1884604288e+02  4.8000000000e+00 0. 9.
       -3     1     5     0     0   104  9.0068908721e+00 -4.3861342588e+01 -1.1009796699e+02  1.1885602127e+02  5.0000000000e-01 0. 9.
        4     1     5     0   104     0  7.1525714492e+00  2.7432122603e+00  1.3029146423e+01  1.5188586121e+01  1.5000000000e+00 0. 9.
       15     1     7     0     0     0 -1.1866166270e+01 -1.7077064816e+01 -1.0148768387e+01  2.3207469353e+01  1.7768200000e+00  3.697741e-02 9.
      -16     1     7     0     0     0  1.0567630707e+01  6.6432810367e+01  1.4117059074e+01  6.8733430504e+01  0.0000000000e+00 0. 9.
#pdf   21   21  2.802525e-02  5.712178e-02  1.859212e+02  3.412560e+00  1.648293e+00
</event>
<event>
    12  9999  1.000000e+00  2.010757e+02  7.888216e-03  1.056663e-01
       21    -1     0     0   101   102  0.0000000000e+00  0.0000000000e+00  1.2293975569e+02  1.2293975569e+02  0.0000000000e+00 0. 9.
       21    -1     0     0   102   103  0.0000000000e+00  0.0000000000e+00 -3.3646045888e+02  3.3646045888e+02  0.0000000000e+00 0. 9.
        6     2     1     2   101     0 -1.1079209940e+02 -2.1986807145e+00 -1.3956805635e+02  2.4237657097e+02  1.6427853274e+02  1.436019e-13 9.
       -6     2     1     2     0   103  1.1079209940e+02  2.1986807145e+00 -7.3952646847e+01  2.1702364360e+02  1.7132000589e+02  1.227320e-13 9.
       24     2     3     0     0     0 -3.2972008500e+01 -2.8995320356e+01 -1.4463545922e+01  9.2549320542e+01  8.0176683799e+01  2.280797e-14 9.
        5     1     3     0   101     0 -7.7820090898e+01  2.6796639642e+01 -1.2510451042e+02  1.4982725043e+02  4.8000000000e+00 0. 9.
      -24     2     4     0     0     0  9.4539735142e+01 -5.6766524264e+01 -7.2781277754e+01  1.5566040666e+02  8.2297314732e+01  9.438850e-14 9.
       -5     1     4     0     0   103  1.6252364256e+01  5.8965204979e+01 -1.1713690926e+00  6.1363236939e+01  4.8000000000e+00 0. 9.
       -1     1     5     0     0   104 -5.4563573432e+01  6.7150208264e-01 -6.0466796786e+00  5.4902692974e+01  3.3000000000e-01 0. 9.
        2     1     5     0   104     0  2.1591564932e+01 -2.9666822439e+01 -8.4168662437e+00  3.7646627567e+01  3.3000000000e-01 0. 9.
        3     1     7     0   105     0  8.9384894625e+01 -3.8750289228e+01 -8.8145409499e+01  1.3138153416e+02  5.0000000000e-01 0. 9.
       -4     1     7     0     0   105  5.1548405173e+00 -1.8016235036e+01  1.5364131745e+01  2.4278872500e+01  1.5000000000e+00 0. 9.
#pdf   21   21  1.891381e-02  5.176315e-02  1.981594e+02  4.842554e+00  1.831271e+00
</event>
<event>
    12  9999  1.000000e+00  2.359501e+02  7.902673e-03  1.036563e-01
       21    -1     0     0   101   102  0.0000000000e+00  0.0000000000e+00  7.6001920231e+01  7.6001920231e+01  0.0000000000e+00 0. 9.
       21    -1     0     0   103   101  0.0000000000e+00  0.0000000000e+00 -1.5706742817e+03  1.5706742817e+03  0.0000000000e+00 0. 9.
        6     2     1     2   103     0 -1.0888730543e+01  1.6221913334e+02 -1.3484345836e+03  1.3688815040e+03  1.7066673429e+02  1.811531e-13 9.
       -6     2     1     2     0   102  1.0888730543e+01 -1.6221913334e+02 -1.4623777793e+02  2.7779469795e+02  1.7132073675e+02  9.530974e-15 9.
       24     2     3     0     0     0  2.1585650959e+01  9.6984649019e+01 -4.5644860701e+02  4.7391103200e+02  7.9839670196e+01  3.425461e-14 9.
        5     1     3     0   103     0 -3.2474381502e+01  6.5234484318e+01 -8.9198597658e+02  8.9497047203e+02  4.8000000000e+00 0. 9.
      -24     2     4     0     0     0 -1.1806183552e+01 -1.0833214174e+02 -1.6725495091e+02  2.1547593231e+02  8.1119787353e+01  1.894165e-13 9.
       -5     1     4     0     0   102  2.2694914095e+01 -5.3886991602e+01  2.1017172981e+01  6.2318765631e+01  4.8000000000e+00 0. 9.
       -3     1     5     0     0   104  2.7948033693e+01 -2.0059698174e-01 -6.9976067539e+01  7.5352722941e+01  5.0000000000e-01 0. 9.
        4     1     5     0   104     0 -6.3623827343e+00  9.7185246001e+01 -3.8647253947e+02  3.9855830906e+02  1.5000000000e+00 0. 9.
        1     1     7     0   105     0  8.0322058653e+00 -3.9588258004e+01 -8.4217095207e+00  4.1264762135e+01  3.3000000000e-01 0. 9.
       -4     1     7     0     0   105 -1.9838389417e+01 -6.8743883731e+01 -1.5883324139e+02  1.7421117018e+02  1.5000000000e+00 0. 9.
#pdf   21   21  1.169260e-02  2.416422e-01  2.357133e+02  7.190633e+00  1.726959e-01
</event>
<event>
    12  9999  1.000000e+00  2.515008e+02  7.908457e-03  1.028757e-01
       21    -1     0     0   101   102  0.0000000000e+00  0.0000000000e+00  1.5760577003e+02  1.5760577003e+02  0.0000000000e+00 0. 9.
       21    -1     0     0   103   101  0.0000000000e+00  0.0000000000e+00 -4.9614609338e+02  4.9614609338e+02  0.0000000000e+00 0. 9.
        6     2     1     2   103     0 -5.9154699779e+01  1.7398684540e+02 -3.1282393712e+02  4.0216114158e+02  1.7350523705e+02  4.042973e-14 9.
       -6     2     1     2     0   102  5.9154699779e+01 -1.7398684540e+02 -2.5716386233e+01  2.5159072183e+02  1.6989955241e+02  7.536996e-15 9.
       24     2     3     0     0     0 -5.1386730207e+01  1.9331782026e+02 -2.2236241318e+02  3.0920763033e+02  7.8434304931e+01  9.965283e-14 9.
        5     1     3     0   103     0 -7.7679695727e+00 -1.9330974853e+01 -9.0461523943e+01  9.2953511252e+01  4.8000000000e+00 0. 9.
      -24     2     4     0     0     0 -1.6124929178e+01 -3.0166725166e+01 -2.0555655984e+01  8.9107114479e+01  7.9671188077e+01  5.512440e-14 9.
       -5     1     4     0     0   102  7.5279628957e+01 -1.4382012024e+02 -5.1607302491e+00  1.6248360735e+02  4.8000000000e+00 0. 9.
       -3     1     5     0     0   104 -1.7922731463e+01  2.2060747326e+01 -7.7041255041e+01  8.2118852001e+01  5.0000000000e-01 0. 9.
        4     1     5     0   104     0 -3.3463998744e+01  1.7125707293e+02 -1.4532115814e+02  2.2708877833e+02  1.5000000000e+00 0. 9.
       15     1     7     0     0     0 -8.3991566437e+00 -9.8487215725e+00 -5.0467394975e+01  5.2131163365e+01  1.7768200000e+00  2.859747e-02 9.
      -16     1     7     0     0     0 -7.7257725339e+00 -2.0318003594e+01  2.9911738991e+01  3.6975951114e+01  0.0000000000e+00 0. 9.
#pdf   21   21  2.424704e-02  7.633017e-02  2.502730e+02  3.863248e+00  1.140266e+00
</event>
<event>
    12  9999  1.000000e+00  1.996690e+02  7.887583e-03  1.057564e-01
       21    -1     0     0   101   102  0.0000000000e+00  0.0000000000e+00  7.3400762154e+02  7.3400762154e+02  0.0000000000e+00 0. 9.
       21    -1     0     0   102   103  0.0000000000e+00  0.0000000000e+00 -3.1962722225e+02  3.1962722225e+02  0.0000000000e+00 0. 9.
        6     2     1     2   101     0  1.0139778946e+02  1.5156767331e+01  6.8668510421e+02  7.1440212251e+02  1.6829355606e+02  3.490562e-13 9.
       -6     2     1     2     0   103 -1.0139778946e+02 -1.5156767331e+01 -2.7230470491e+02  3.3923272128e+02  1.7440684495e+02  6.965980e-14 9.
       24     2     3     0     0     0  9.8854913531e+01  5.6079334240e+01  6.2394343135e+02  6.3929766051e+02  8.0491661353e+01  3.008047e-13 9.
        5     1     3     0   101     0  2.5428759260e+00 -4.0922566909e+01  6.2741672857e+01  7.5104462007e+01  4.8000000000e+00 0. 9.
      -24     2     4     0     0     0 -9.4809417902e-01 -5.0642607968e+01 -1.3253280042e+02  1.6342427025e+02  8.1098559147e+01  1.560173e-13 9.
       -5     1     4     0     0   103 -1.0044969528e+02  3.5485840637e+01 -1.3977190449e+02  1.7580845102e+02  4.8000000000e+00 0. 9.
       -1     1     5     0     0   104  2.4823693593e+01  4.1299613425e+01  1.1355217502e+02  1.2335347253e+02  3.3000000000e-01 0. 9.
        2     1     5     0   104     0  7.4031219938e+01  1.4779720815e+01  5.1039125633e+02  5.1594418798e+02  3.3000000000e-01 0. 9.
       11     1     7     0     0     0  3.7853107864e+00  7.5290139452e+00 -9.1955428209e+01  9.2340757015e+01  5.1100000000e-04 0. 9.
      -12     1     7     0     0     0 -4.7334049654e+00 -5.8171621913e+01 -4.0577372214e+01  7.1083513238e+01  0.0000000000e+00 0. 9.
#pdf   21   21  1.129242e-01  4.917342e-02  1.970633e+02  6.906063e-01  1.937257e+00
</event>
<event>
    12  9999  1.000000e+00  1.720032e+02  7.874151e-03  1.077067e-01
       21    -1     0     0   101   102  0.0000000000e+00  0.0000000000e+00  2.4880692914e+02  2.4880692914e+02  0.0000000000e+00 0. 9.
       21    -1     0     0   102   103  0.0000000000e+00  0.0000000000e+00 -2.4538676165e+02  2.4538676165e+02  0.0000000000e+00 0. 9.
        6     2     1     2   101     0 -1.2485265215e+01  1.0472985335e+01  1.7910634799e+02  2.4805394163e+02  1.7083942402e+02  1.315366e-14 9.
       -6     2     1     2     0   103  1.2485265215e+01 -1.0472985335e+01 -1.7568618050e+02  2.4613974916e+02  1.7162044409e+02  2.325016e-13 9.
       24     2     3     0     0     0 -1.2618759094e+01  5.9093782430e+01  4.8134700757e+01  1.0826620215e+02  7.5850595958e+01  1.136986e-13 9.
        5     1     3     0   101     0  1.3349387846e-01 -4.8620797094e+01  1.3097164723e+02  1.3978773948e+02  4.8000000000e+00 0. 9.
      -24     2     4     0     0     0 -2.4632404156e-01 -7.1147949747e+01 -1.3250413115e+02  1.7043457062e+02  8.0177968687e+01  1.107794e-13 9.
       -5     1     4     0     0   103  1.2731589257e+01  6.0674964412e+01 -4.3182049352e+01  7.5705178539e+01  4.8000000000e+00 0. 9.
       -1     1     5     0     0   104  2.7791029912e+00  3.9177790126e+01  6.6410220568e+01  7.7156003969e+01  3.3000000000e-01 0. 9.
        2     1     5     0   104     0 -1.5397862085e+01  1.9915992304e+01 -1.8275519811e+01  3.1110198177e+01  3.3000000000e-01 0. 9.
       13     1     7     0     0     0  2.9509541648e+01  6.0360235752e-01 -3.6093030068e+01  4.6625050859e+01  1.0566000000e-01  1.218453e+05 9.
      -14     1     7     0     0     0 -2.9755865689e+01 -7.1751552105e+01 -9.6411101085e+01  1.2380951977e+02  0.0000000000e+00 0. 9.
#pdf   21   21  3.827799e-02  3.775181e-02  1.716149e+02  2.532883e+00  2.568178e+00
</event>
<event>
    12  9999  1.000000e+00  1.893373e+02  7.882793e-03  1.064429e-01
       21    -1     0     0   101   102  0.0000000000e+00  0.0000000000e+00  3.4729667233e+02  3.4729667233e+02  0.0000000000e+00 0. 9.
       21    -1     0     0   103   101  0.0000000000e+00  0.0000000000e+00 -1.0384494995e+02  1.0384494995e+02  0.0000000000e+00 0. 9.
        6     2     1     2   103     0  4.8363115075e+01  6.2889814977e+01  1.3950047138e+02  2.3557180068e+02  1.7245165129e+02  9.959868e-14 9.
       -6     2     1     2     0   102 -4.8363115075e+01 -6.2889814977e+01  1.0395125099e+02  2.1556982160e+02  1.7137784476e+02  4.251776e-13 9.
       24     2     3     0     0     0  6.2838400770e+01  4.4990081009e+00  2.5623679061e+01  1.0669207360e+02  8.2205352352e+01  4.862865e-15 9.
        5     1     3     0   103     0 -1.4475285696e+01  5.8390806876e+01  1.1387679232e+02  1.2887972708e+02  4.8000000000e+00 0. 9.
      -24     2     4     0     0     0 -6.1365358264e+00 -1.0113135313e+02  5.9480144990e+01  1.4313903737e+02  8.1766060888e+01  4.856674e-15 9.
       -5     1     4     0     0   102 -4.2226579248e+01  3.8241538151e+01  4.4471105999e+01  7.2430784228e+01  4.8000000000e+00 0. 9.
       -3     1     5     0     0   104  3.1715748529e+00 -3.0853129842e+01  2.0398702564e+01  3.7125888197e+01  5.0000000000e-01 0. 9.
        4     1     5     0   104     0  5.9666825917e+01  3.5352137943e+01  5.2249764971e+00  6.9566185404e+01  1.5000000000e+00 0. 9.
       11     1     7     0     0     0 -2.4342981764e+01 -4.7040967342e+01  6.7181047209e+01  8.5549555662e+01  5.1100000000e-04 0. 9.
      -12     1     7     0     0     0  1.8206445938e+01 -5.4090385786e+01 -7.7009022186e+00  5.7589481706e+01  0.0000000000e+00 0. 9.
#pdf   21   21  5.343026e-02  1.597615e-02  1.888504e+02  1.773997e+00  5.586803e+00
</event>
<event>
    12  9999  1.000000e+00  2.731893e+02  7.915966e-03  1.018815e-01
       21    -1     0     0   101   102  0.0000000000e+00  0.0000000000e+00  2.1566879375e+02  2.1566879375e+02  0.0000000000e+00 0. 9.
       21    -1     0     0   102   103  0.0000000000e+00  0.0000000000e+00 -3.5487735313e+02  3.5487735313e+02  0.0000000000e+00 0. 9.
        6     2     1     2   101     0  1.6415792807e+01 -2.1138674580e+02 -2.4481066528e+01  2.7373335657e+02  1.7139659660e+02  1.752710e-13 9.
       -6     2     1     2     0   103 -1.6415792807e+01  2.1138674580e+02 -1.1472749286e+02  2.9681279031e+02  1.7315195731e+02  5.280199e-14 9.
       24     2     3     0     0     0  3.4229107108e+01 -1.7297312208e+02 -6.7967208161e+01  2.1284817637e+02  9.7946271309e+01  1.121391e-13 9.
        5     1     3     0   101     0 -1.7813314301e+01 -3.8413623723e+01  4.3486141632e+01  6.0885180200e+01  4.8000000000e+00 0. 9.
      -24     2     4     0     0     0 -1.9868969753e+01  2.3232219064e+02 -1.2067898157e+02  2.7425891040e+02  7.9285289409e+01  1.067099e-13 9.
       -5     1     4     0     0   103  3.4531769463e+00 -2.0935444834e+01  5.9514887139e+00  2.2553879918e+01  4.8000000000e+00 0. 9.
      -13     1     5     0     0     0 -2.1366714953e+01 -2.8307984108e+00 -4.9812648213e-01  2.1559434629e+01  1.0566000000e-01  2.817034e+04 9.
       14     1     5     0     0     0  5.5595822060e+01 -1.7014232367e+02 -6.7469081679e+01  1.9128874174e+02  0.0000000000e+00 0. 9.
        3     1     7     0   104     0 -4.1975838792e+01  8.9202905165e+01 -2.8640073612e+01  1.0266271548e+02  5.0000000000e-01 0. 9.
       -4     1     7     0     0   104  2.2106869039e+01  1.4311928547e+02 -9.2038907960e+01  1.7159619492e+02  1.5000000000e+00 0. 9.
#pdf   21   21  3.317981e-02  5.459652e-02  2.726364e+02  2.857932e+00  1.688763e+00
</event>
<event>
    12  9999  1.000000e+00  2.324431e+02  7.901317e-03  1.038412e-01
       -2    -1     0     0     0   101  0.0000000000e+00  0.0000000000e+00  2.7756289018e+01  2.7756289018e+01  0.0000000000e+00 0. 9.
        2    -1     0     0   102     0  0.0000000000e+00  0.0000000000e+00 -2.2863485807e+03  2.2863485807e+03  0.0000000000e+00 0. 9.
       -6     2     1     2     0   101  1.2564013701e+02  9.8288804720e+01 -6.8845636238e+02  7.2703842626e+02  1.7078225082e+02  1.410881e-15 9.
        6     2     1     2   102     0 -1.2564013701e+02 -9.8288804720e+01 -1.5701359293e+03  1.5870664435e+03  1.6735270033e+02  1.322544e-13 9.
      -24     2     3     0     0     0  1.1282537233e+02  1.1523068750e+02 -6.7747833258e+02  7.0264984851e+02  9.3446468757e+01  1.180341e-13 9.
       -5     1     3     0     0   101  1.2814764682e+01 -1.6941882782e+01 -1.0978029802e+01  2.4388577745e+01  4.8000000000e+00 0. 9.
       24     2     4     0     0     0 -5.2866250314e+01  9.2147735061e+00 -5.1954676696e+02  5.2847601938e+02  8.0487934068e+01  4.263665e-14 9.
        5     1     4     0   102     0 -7.2773886696e+01 -1.0750357823e+02 -1.0505891624e+03  1.0585904241e+03  4.8000000000e+00 0. 9.
       15     1     5     0     0     0  1.5779373943e+01  3.7920766674e+01 -3.5082915647e+02  3.5322970898e+02  1.7768200000e+00  2.829572e-02 9.
      -16     1     5     0     0     0  9.7045998386e+01  7.7309920829e+01 -3.2664917611e+02  3.4942013953e+02  0.0000000000e+00 0. 9.
       -3     1     7     0     0   103 -5.4237097121e+01 -1.6433176062e+01 -4.6170392448e+02  4.6516929807e+02  5.0000000000e-01 0. 9.
        4     1     7     0   103     0  1.3708468067e+00  2.5647949568e+01 -5.7842842471e+01  6.3306721311e+01  1.5000000000e+00 0. 9.
#pdf   -2    2  4.270198e-03  3.517459e-01  2.311992e+02  8.368303e-01  2.350632e-01
</event>
<event>
    12  9999  1.000000e+00  1.723229e+02  7.874318e-03  1.076820e-01
       21    -1     0     0   101   102  0.0000000000e+00  0.0000000000e+00  1.4950312181e+02  1.4950312181e+02  0.0000000000e+00 0. 9.
       21    -1     0     0   103   101  0.0000000000e+00  0.0000000000e+00 -2.0345555698e+02  2.0345555698e+02  0.0000000000e+00 0. 9.
        6     2     1     2   103     0 -1.9766641157e+01  1.7861591054e+01 -5.4256244992e+01  1.8126998141e+02  1.7089560995e+02  3.506215e-13 9.
       -6     2     1     2     0   102  1.9766641157e+01 -1.7861591054e+01  3.0380982037e-01  1.7168869738e+02  1.6960884402e+02  1.630845e-15 9.
       24     2     3     0     0     0  5.6291278033e+00  7.0061057135e+01 -6.0494064450e+01  1.2268944085e+02  8.0330120478e+01  1.207358e-14 9.
        5     1     3     0   103     0 -2.5395768961e+01 -5.2199466081e+01  6.2378194580e+00  5.8580540556e+01  4.8000000000e+00 0. 9.
      -24     2     4     0     0     0 -2.0889650033e+00  3.7621159148e+01  4.3958257207e+01  9.7629573245e+01  7.8609730980e+01  4.042765e-14 9.
       -5     1     4     0     0   102  2.1855606161e+01 -5.5482750202e+01 -4.3654447386e+01  7.4059124132e+01  4.8000000000e+00 0. 9.
       -1     1     5     0     0   104  1.5728132670e+01  4.2220259165e+01  1.0064905943e+01  4.6166391162e+01  3.3000000000e-01 0. 9.
        2     1     5     0   104     0 -1.0099004867e+01  2.7840797969e+01 -7.0558970393e+01  7.6523049689e+01  3.3000000000e-01 0. 9.
       11     1     7     0     0     0 -5.3137301664e+00 -2.3723513743e+01  4.7994437654e+00  2.4780546671e+01  5.1100000000e-04 0. 9.
      -12     1     7     0     0     0  3.2247651631e+00  6.1344672892e+01  3.9158813441e+01  7.2849026573e+01  0.0000000000e+00 0. 9.
#pdf   21   21  2.300048e-02  3.130085e-02  1.716884e+02  4.092326e+00  3.082944e+00
</event>
<event>
    12  9999  1.000000e+00  1.913135e+02  7.883729e-03  1.063080e-01
       21    -1     0     0   101   102  0.0000000000e+00  0.0000000000e+00  4.8004916500e+02  4.8004916500e+02  0.0000000000e+00 0. 9.
       21    -1     0     0   102   103  0.0000000000e+00  0.0000000000e+00 -7.6258762414e+01  7.6258762414e+01  0.0000000000e+00 0. 9.
        6     2     1     2   101     0 -7.9159864300e+01  3.4816591996e+01  1.9803559810e+02  2.7536143875e+02  1.7066735084e+02  6.301968e-13 9.
       -6     2     1     2     0   103  7.9159864300e+01 -3.4816591996e+01  2.0575480449e+02  2.8094648866e+02  1.7063824521e+02  1.175718e-13 9.
       24     2     3     0     0     0 -8.0694904448e+01  7.5871019949e+01  1.0032309432e+02  1.6925490833e+02  7.9463334114e+01  3.516010e-15 9.
        5     1     3     0   101     0  1.5350401476e+00 -4.1054427954e+01  9.7712503773e+01  1.0610653041e+02  4.8000000000e+00 0. 9.
      -24     2     4     0     0     0  4.9234155458e+01  4.4516439624e+01  1.4363265127e+02  1.7572538870e+02  7.6441861991e+01  7.924765e-14 9.
       -5     1     4     0     0   103  2.9925708842e+01 -7.9333031620e+01  6.2122153220e+01  1.0522109996e+02  4.8000000000e+00 0. 9.
      -11     1     5     0     0     0 -5.5867299348e+01  5.4274367939e+00  2.0039812166e+01  5.9600388242e+01  5.1100000000e-04 0. 9.
       12     1     5     0     0     0 -2.4827605100e+01  7.0443583155e+01  8.0283282156e+01  1.0965452009e+02  0.0000000000e+00 0. 9.
        1     1     7     0   104     0  2.5334921599e+01  1.5997513140e+01  2.8406035196e+00  3.0099113068e+01  3.3000000000e-01 0. 9.
       -2     1     7     0     0   104  2.3899233859e+01  2.8518926485e+01  1.4079204775e+02  1.4562627564e+02  3.3000000000e-01 0. 9.
#pdf   21   21  7.385372e-02  1.173212e-02  1.913005e+02  1.215999e+00  7.168128e+00
</event>
<event>
    12  9999  1.000000e+00  4.073381e+02  7.952430e-03  9.734176e-02
       -2    -1     0     0     0   101  0.0000000000e+00  0.0000000000e+00  1.3846913491e+02  1.3846913491e+02  0.0000000000e+00 0. 9.
        2    -1     0     0   102     0  0.0000000000e+00  0.0000000000e+00 -3.8024302650e+03  3.8024302650e+03  0.0000000000e+00 0. 9.
       -6     2     1     2     0   101  3.3950940372e+02 -1.3136961917e+02 -2.0856685514e+02  4.6216316225e+02  1.9382993429e+02  9.398231e-14 9.
        6     2     1     2   102     0 -3.3950940372e+02  1.3136961917e+02 -3.4553942750e+03  3.4787362377e+03  1.7126471865e+02  5.146528e-14 9.
      -24     2     3     0     0     0  3.0129647449e+02 -1.1457177797e+02 -1.0254211340e+02  3.4811632411e+02  8.2242520880e+01  1.181471e-13 9.
       -5     1     3     0     0   101  3.8212929230e+01 -1.6797841196e+01 -1.0602474175e+02  1.1404683815e+02  4.8000000000e+00 0. 9.
       24     2     4     0     0     0 -2.0695104361e+02  9.3888898941e+00 -1.8826749158e+03  1.8957263704e+03  7.9979667608e+01  1.673700e-13 9.
        5     1     4     0   102     0 -1.3255836011e+02  1.2198072927e+02 -1.5727193592e+03  1.5830098673e+03  4.8000000000e+00 0. 9.
        3     1     5     0   103     0  2.2374212330e+02 -1.1994311847e+02 -6.6592096318e+01  2.6245313239e+02  5.0000000000e-01 0. 9.
       -4     1     5     0     0   103  7.7554351193e+01  5.3713405014e+00 -3.5950017079e+01  8.5663191721e+01  1.5000000000e+00 0. 9.
       -1     1     7     0     0   104 -1.1948178933e+02  4.3980601412e+01 -1.1554662170e+03  1.1624596676e+03  3.3000000000e-01 0. 9.
        2     1     7     0   104     0 -8.7469254285e+01 -3.4591711518e+01 -7.2720869875e+02  7.3326670277e+02  3.3000000000e-01 0. 9.
#pdf   -2    2  2.130294e-02  5.849893e-01  4.023136e+02  3.253538e-01  4.290651e-02
</event>
<event>
    12  9999  1.000000e+00  2.101497e+02  7.892201e-03  1.051038e-01
       21    -1     0     0   101   102  0.0000000000e+00  0.0000000000e+00  3.4383256921e+02  3.4383256921e+02  0.0000000000e+00 0. 9.
       21    -1     0     0   103   101  0.0000000000e+00  0.0000000000e+00 -1.6952209655e+02  1.6952209655e+02  0.0000000000e+00 0. 9.
        6     2     1     2   103     0 -7.4087380132e+01 -9.5993263039e+01 -3.9400230243e+01  2.1317080507e+02  1.7083842527e+02  3.037000e-14 9.
       -6     2     1     2     0   102  7.4087380132e+01  9.5993263039e+01  2.1371070290e+02  3.0018386069e+02  1.7243676882e+02  3.011295e-13 9.
       24     2     3     0     0     0 -5.2623052249e+01 -1.0548655358e+02 -8.1831432365e+01  1.6444415066e+02  8.0305023177e+01  1.717243e-13 9.
        5     1     3     0   103     0 -2.1464327883e+01  9.4932905450e+00  4.2431202122e+01  4.8726654414e+01  4.8000000000e+00 0. 9.
      -24     2     4     0     0     0  3.1485807755e+01 -1.8537794016e+01  1.0274250665e+02  1.3504986184e+02  7.9670801504e+01  3.665084e-14 9.
       -5     1     4     0     0   102  4.2601572377e+01  1.1453105705e+02  1.1096819625e+02  1.6513399885e+02  4.8000000000e+00 0. 9.
       -3     1     5     0     0   104  1.5856270016e+01 -3.9969443253e-01 -2.6076232403e+00  1.6082000914e+01  5.0000000000e-01 0. 9.
        4     1     5     0   104     0 -6.8479322264e+01 -1.0508685915e+02 -7.9223809125e+01  1.4836214974e+02  1.5000000000e+00 0. 9.
       13     1     7     0     0     0 -1.8393018371e+01  1.7772187476e+01  2.4588707564e+01  3.5479141424e+01  1.0566000000e-01  6.619894e+05 9.
      -14     1     7     0     0     0  4.9878826126e+01 -3.6309981492e+01  7.8153799088e+01  9.9570720413e+01  0.0000000000e+00 0. 9.
#pdf   21   21  5.289732e-02  2.608032e-02  2.094980e+02  1.781426e+00  3.633667e+00
</event>
<event>
    12  9999  1.000000e+00  2.811962e+02  7.918592e-03  1.015388e-01
       21    -1     0     0   101   102  0.0000000000e+00  0.0000000000e+00  1.8699748482e+02  1.8699748482e+02  0.0000000000e+00 0. 9.
       21    -1     0     0   103   101  0.0000000000e+00  0.0000000000e+00 -7.7187102521e+02  7.7187102521e+02  0.0000000000e+00 0. 9.
        6     2     1     2   103     0  1.6982800947e+02 -1.4069849136e+02 -6.1562157914e+02  6.7738817023e+02  1.7671215632e+02  1.567864e-13 9.
       -6     2     1     2     0   102 -1.6982800947e+02  1.4069849136e+02  3.0748038748e+01  2.8148033981e+02  1.7218629894e+02  2.413225e-14 9.
       24     2     3     0     0     0  1.1731823021e+02 -1.9208247210e+01 -2.4563525828e+02  2.8441224989e+02  8.0131915468e+01  1.734649e-13 9.
        5     1     3     0   103     0  5.2509779251e+01 -1.2149024415e+02 -3.6998632086e+02  3.9297592034e+02  4.8000000000e+00 0. 9.
      -24     2     4     0     0     0 -1.8970586112e+02  1.0956392593e+02  4.1487668532e+01  2.4271347511e+02  9.5895968389e+01  2.069002e-13 9.
       -5     1     4     0     0   102  1.9877851653e+01  3.1134565424e+01 -1.0739629784e+01  3.8766864697e+01  4.8000000000e+00 0. 9.
      -13     1     5     0     0     0 -3.9964372237e+00 -2.2335439645e+00  4.1672298766e+00  6.1917039662e+00  1.0566000000e-01  2.859435e+05 9.
       14     1     5     0     0     0  1.2131466744e+02 -1.6974703246e+01 -2.4980248815e+02  2.7822054592e+02  0.0000000000e+00 0. 9.
        1     1     7     0   104     0 -1.1430272309e+02  1.0734398044e+01  2.1675911751e+01  1.1683447205e+02  3.3000000000e-01 0. 9.
       -2     1     7     0     0   104 -7.5403138025e+01  9.8829527889e+01  1.9811756781e+01  1.2587900307e+02  3.3000000000e-01 0. 9.
#pdf   21   21  2.876884e-02  1.187494e-01  2.797959e+02  3.279738e+00  6.159068e-01
</event>
<event>
    12  9999  1.000000e+00  2.457638e+02  7.906365e-03  1.031565e-01
       21    -1     0     0   101   102  0.0000000000e+00  0.0000000000e+00  3.6596941028e+02  3.6596941028e+02  0.0000000000e+00 0. 9.
       21    -1     0     0   102   103  0.0000000000e+00  0.0000000000e+00 -1.8807186135e+02  1.8807186135e+02  0.0000000000e+00 0. 9.
        6     2     1     2   101     0 -8.4807242827e+00 -1.7649457209e+02 -7.9978337934e+00  2.4587644459e+02  1.7078935563e+02  5.300053e-13 9.
       -6     2     1     2     0   103  8.4807242827e+00  1.7649457209e+02  1.8589538272e+02  3.0816482704e+02  1.7083972211e+02  1.866627e-13 9.
       24     2     3     0     0     0 -4.4903579831e+01 -1.8074626980e+02 -2.5277075962e+01  2.0505594056e+02  8.1996723478e+01  8.080400e-14 9.
        5     1     3     0   101     0  3.6422855548e+01  4.2516977088e+00  1.7279242168e+01  4.0820504034e+01  4.8000000000e+00 0. 9.
      -24     2     4     0     0     0 -8.6688418254e-01  1.7217123113e+02  8.7129479851e+01  2.0874746120e+02  7.9625824844e+01  1.192099e-13 9.
       -5     1     4     0     0   103  9.3476084652e+00  4.3233409554e+00  9.8765902868e+01  9.9417365839e+01  4.8000000000e+00 0. 9.
       -1     1     5     0     0   104  1.1478773214e+01 -3.4159261157e+01 -3.1516894651e+01  4.7875264027e+01  3.3000000000e-01 0. 9.
        2     1     5     0   104     0 -5.6382353045e+01 -1.4658700864e+02  6.2398186890e+00  1.5718067653e+02  3.3000000000e-01 0. 9.
       11     1     7     0     0     0  3.6138399558e+01  5.1878164247e+01  3.7145415466e+01  7.3328778379e+01  5.1100000000e-04 0. 9.
      -12     1     7     0     0     0 -3.7005283740e+01  1.2029306688e+02  4.9984064386e+01  1.3541868282e+02  0.0000000000e+00 0. 9.
#pdf   21   21  5.630299e-02  2.893413e-02  2.457463e+02  1.642665e+00  3.277988e+00
</event>
<event>
    12  9999  1.000000e+00  2.429815e+02  7.905333e-03  1.032957e-01
       21    -1     0     0   101   102  0.0000000000e+00  0.0000000000e+00  1.7909922881e+02  1.7909922881e+02  0.0000000000e+00 0. 9.
       21    -1     0     0   103   101  0.0000000000e+00  0.0000000000e+00 -7.4761044830e+02  7.4761044830e+02  0.0000000000e+00 0. 9.
        6     2     1     2   103     0 -1.6972832073e+02 -3.1154551002e+01 -6.3079524452e+02  6.7603616617e+02  1.7130075470e+02  2.757697e-13 9.
       -6     2     1     2     0   102  1.6972832073e+02  3.1154551002e+01  6.2284025024e+01  2.5067351093e+02  1.7082037467e+02  8.387497e-14 9.
       24     2     3     0     0     0 -7.3535749473e+01  2.5470632385e+01 -4.5025332449e+02  4.6372072385e+02  7.9073345414e+01  6.349284e-14 9.
        5     1     3     0   103     0 -9.6192571258e+01 -5.6625183387e+01 -1.8054192003e+02  2.1231544232e+02  4.8000000000e+00 0. 9.
      -24     2     4     0     0     0  6.5593737494e+01  7.3804690386e+01  5.3021347814e+01  1.3766075500e+02  7.9934657194e+01  1.528404e-13 9.
       -5     1     4     0     0   102  1.0413458324e+02 -4.2650139384e+01  9.2626772103e+00  1.1301275594e+02  4.8000000000e+00 0. 9.
       -1     1     5     0     0   104 -4.3769502881e+01 -2.6415510395e+01 -2.0597817452e+02  2.1222786304e+02  3.3000000000e-01 0. 9.
        2     1     5     0   104     0 -2.9766246592e+01  5.1886142780e+01 -2.4427514997e+02  2.5149286081e+02  3.3000000000e-01 0. 9.
       15     1     7     0     0     0  1.4407325542e+01 -1.1355901035e+01  3.0726722437e+01  3.5830379270e+01  1.7768200000e+00  1.469951e-04 9.
      -16     1     7     0     0     0  5.1186411952e+01  8.5160591421e+01  2.2294625377e+01  1.0183037573e+02  0.0000000000e+00 0. 9.
#pdf   21   21  2.755373e-02  1.150170e-01  2.428125e+02  3.434789e+00  6.564151e-01
</event>
<event>
    12  9999  1.000000e+00  1.884616e+02  7.882375e-03  1.065032e-01
       21    -1     0     0   101   102  0.0000000000e+00  0.0000000000e+00  7.9227763319e+01  7.9227763319e+01  0.0000000000e+00 0. 9.
       21    -1     0     0   103   101  0.0000000000e+00  0.0000000000e+00 -8.1949708628e+02  8.1949708628e+02  0.0000000000e+00 0. 9.
        6     2     1     2   103     0 -3.8551226595e+01  7.3020731028e+01 -6.7299122368e+02  6.9898865888e+02  1.6985209408e+02  2.455451e-13 9.
       -6     2     1     2     0   102  3.8551226595e+01 -7.3020731028e+01 -6.7278099278e+01  1.9973619071e+02  1.6896739037e+02  1.659318e-13 9.
       24     2     3     0     0     0 -4.1122638733e+01 -2.0350289123e+01 -3.6002208607e+02  3.7234285582e+02  8.3175081216e+01  3.973935e-14 9.
        5     1     3     0   103     0  2.5714121380e+00  9.3371020151e+01 -3.1296913761e+02  3.2664580307e+02  4.8000000000e+00 0. 9.
      -24     2     4     0     0     0 -3.5291543903e+01 -2.3648070981e+01 -3.4529855065e+00  9.0250577674e+01  7.9551991360e+01  5.882815e-14 9.
       -5     1     4     0     0   102  7.3842770498e+01 -4.9372660046e+01 -6.3825113772e+01  1.0948561304e+02  4.8000000000e+00 0. 9.
      -15     1     5     0     0     0 -5.5997408359e+01 -2.0981934540e+01 -3.4828151856e+02  3.5338240559e+02  1.7768200000e+00  3.856240e-02 9.
       16     1     5     0     0     0  1.4874769625e+01  6.3164541703e-01 -1.1740567509e+01  1.8960450226e+01  0.0000000000e+00 0. 9.
        1     1     7     0   104     0 -1.0807514696e+01 -4.9046108527e+01  1.2153496961e+01  5.1673392805e+01  3.3000000000e-01 0. 9.
       -2     1     7     0     0   104 -2.4484029207e+01  2.5398037546e+01 -1.5606482468e+01  3.8577184869e+01  3.3000000000e-01 0. 9.
#pdf   21   21  1.218889e-02  1.260765e-01  1.880644e+02  6.954929e+00  5.905853e-01
</event>
<event>
    12  9999  1.000000e+00  1.986642e+02  7.887128e-03  1.058212e-01
       21    -1     0     0   101   102  0.0000000000e+00  0.0000000000e+00  2.0717273494e+02  2.0717273494e+02  0.0000000000e+00 0. 9.
       21    -1     0     0   103   101  0.0000000000e+00  0.0000000000e+00 -1.9366420037e+02  1.9366420037e+02  0.0000000000e+00 0. 9.
        6     2     1     2   103     0 -5.7398023723e+01 -8.1760702504e+01  3.2365293580e+01  2.0201937725e+02  1.7258322907e+02  5.879545e-14 9.
       -6     2     1     2     0   102  5.7398023723e+01  8.1760702504e+01 -1.8856759014e+01  1.9881755806e+02  1.7086105007e+02  2.332028e-13 9.
       24     2     3     0     0     0 -7.4199411308e+01 -1.0939770668e+02 -2.1115789147e+00  1.5450321830e+02  7.9958581998e+01  1.714382e-14 9.
        5     1     3     0   103     0  1.6801387585e+01  2.7637004173e+01  3.4476872494e+01  4.7516158950e+01  4.8000000000e+00 0. 9.
      -24     2     4     0     0     0  4.8403301655e+01  1.2275019635e+02 -1.2641298864e+01  1.5612428487e+02  8.2489390669e+01  6.496172e-14 9.
       -5     1     4     0     0   102  8.9947220678e+00 -4.0989493848e+01 -6.2154601496e+00  4.2693273192e+01  4.8000000000e+00 0. 9.
      -11     1     5     0     0     0  1.7036785797e+00 -5.0713948111e+01  2.2418054325e+01  5.5474103991e+01  5.1100000000e-04 0. 9.
       12     1     5     0     0     0 -7.5903089888e+01 -5.8683758566e+01 -2.4529633240e+01  9.9029114309e+01  0.0000000000e+00 0. 9.
       15     1     7     0     0     0  6.9478180917e+01  7.2150736817e+01 -1.4806432874e+01  1.0126862293e+02  1.7768200000e+00  7.499376e-03 9.
      -16     1     7     0     0     0 -2.1074879262e+01  5.0599459536e+01  2.1651340093e+00  5.4855661936e+01  0.0000000000e+00 0. 9.
#pdf   21   21  3.187273e-02  2.979449e-02  1.979213e+02  3.013931e+00  3.214680e+00
</event>
<event>
    12  9999  1.000000e+00  1.810885e+02  7.878782e-03  1.070255e-01
       21    -1     0     0   101   102  0.0000000000e+00  0.0000000000e+00  1.3916576934e+02  1.3916576934e+02  0.0000000000e+00 0. 9.
       21    -1     0     0   102   103  0.0000000000e+00  0.0000000000e+00 -2.4339144633e+02  2.4339144633e+02  0.0000000000e+00 0. 9.
        6     2     1     2   101     0  3.6299401430e+01  2.4337417548e+01 -8.7112695105e+01  2.0468225156e+02  1.7998957197e+02  4.245617e-14 9.
       -6     2     1     2     0   103 -3.6299401430e+01 -2.4337417548e+01 -1.7112981880e+01  1.7787496411e+02  1.7157124547e+02  6.163451e-14 9.
       24     2     3     0     0     0  9.1807113093e+01  2.6379665443e+01 -8.1794411803e+01  1.4867688603e+02  7.9309885094e+01  1.262839e-13 9.
        5     1     3     0   101     0 -5.5507711663e+01 -2.0422478949e+00 -5.3182833020e+00  5.6005365527e+01  4.8000000000e+00 0. 9.
      -24     2     4     0     0     0 -3.2614749420e+01  3.6885528591e+01 -5.1943105001e+01  1.0717840641e+02  7.9780076112e+01  1.283773e-13 9.
       -5     1     4     0     0   103 -3.6846520100e+00 -6.1222946139e+01  3.4830123120e+01  7.0696557702e+01  4.8000000000e+00 0. 9.
       -3     1     5     0     0   104  1.5978114779e+00  3.3415777281e+01 -1.8376964835e+01  3.8172372331e+01  5.0000000000e-01 0. 9.
        4     1     5     0   104     0  9.0209301615e+01 -7.0361118382e+00 -6.3417446968e+01  1.1050451370e+02  1.5000000000e+00 0. 9.
        3     1     7     0   105     0 -1.3443191557e+00 -2.1834249843e+01  1.3520645393e+00  2.1923041274e+01  5.0000000000e-01 0. 9.
       -4     1     7     0     0   105 -3.1270430264e+01  5.8719778433e+01 -5.3295169540e+01  8.5255365136e+01  1.5000000000e+00 0. 9.
#pdf   21   21  2.141012e-02  3.744484e-02  1.770498e+02  4.356827e+00  2.585657e+00
</event>
<event>
    12  9999  1.000000e+00  2.206816e+02  7.896620e-03  1.044876e-01
       21    -1     0     0   101   102  0.0000000000e+00  0.0000000000e+00  1.2159883204e+03  1.2159883204e+03  0.0000000000e+00 0. 9.
       21    -1     0     0   103   101  0.0000000000e+00  0.0000000000e+00 -4.1505209446e+01  4.1505209446e+01  0.0000000000e+00 0. 9.
        6     2     1     2   103     0  7.5623213945e+01  1.1946511899e+02  4.6785230990e+02  5.1700966148e+02  1.6858950454e+02  1.043167e-13 9.
       -6     2     1     2     0   102 -7.5623213945e+01 -1.1946511899e+02  7.0663080102e+02  7.4048386833e+02  1.7028941589e+02  4.056762e-14 9.
       24     2     3     0     0     0  8.1220040627e+01  1.4844195067e+02  4.2850477601e+02  4.6759053901e+02  7.9955371208e+01  5.999376e-14 9.
        5     1     3     0   103     0 -5.5968266828e+00 -2.8976831677e+01  3.9347533887e+01  4.9419122472e+01  4.8000000000e+00 0. 9.
      -24     2     4     0     0     0 -1.0574565996e+02 -1.0956785225e+02  6.7067928643e+02  6.9230846959e+02  7.9328765099e+01  5.422888e-14 9.
       -5     1     4     0     0   102  3.0122446012e+01 -9.8972667431e+00  3.5951514594e+01  4.8175398746e+01  4.8000000000e+00 0. 9.
       -3     1     5     0     0   104  9.0761645788e+01  1.4863057682e+02  3.7825085141e+02  4.1641647579e+02  5.0000000000e-01 0. 9.
        4     1     5     0   104     0 -9.5416051603e+00 -1.8862614911e-01  5.0253924596e+01  5.1174063217e+01  1.5000000000e+00 0. 9.
        3     1     7     0   105     0 -5.0635979735e+01 -2.2622080265e+01  1.2146182965e+02  1.3352522991e+02  5.0000000000e-01 0. 9.
       -4     1     7     0     0   105 -5.5109680221e+01 -8.6945771987e+01  5.4921745677e+02  5.5878323968e+02  1.5000000000e+00 0. 9.
#pdf   21   21  1.870751e-01  6.385417e-03  2.200300e+02  2.984529e-01  1.135693e+01
</event>
<event>
    12  9999  1.000000e+00  3.509889e+02  7.938801e-03  9.898504e-02
       21    -1     0     0   101   102  0.0000000000e+00  0.0000000000e+00  3.1127716104e+02  3.1127716104e+02  0.0000000000e+00 0. 9.
       21    -1     0     0   102   103  0.0000000000e+00  0.0000000000e+00 -5.7055766668e+02  5.7055766668e+02  0.0000000000e+00 0. 9.
        6     2     1     2   101     0  2.8355922243e+02  1.1546292007e+02  1.1435319449e+02  3.6933171951e+02  1.7202252007e+02  1.351980e-13 9.
       -6     2     1     2     0   103 -2.8355922243e+02 -1.1546292007e+02 -3.7363370013e+02  5.1250310820e+02  1.7123018282e+02  4.648148e-14 9.
       24     2     3     0     0     0  1.4703981902e+02 -6.4081232361e+00  5.0413023709e+01  1.7542069830e+02  8.1050453513e+01  2.840459e-13 9.
        5     1     3     0   101     0  1.3651940341e+02  1.2187104331e+02  6.3940170784e+01  1.9391102121e+02  4.8000000000e+00 0. 9.
      -24     2     4     0     0     0 -1.0108430318e+02 -2.8682914809e+01 -2.2697013831e+02  2.6278105104e+02  8.0608257317e+01  9.862766e-14 9.
       -5     1     4     0     0   103 -1.8247491925e+02 -8.6780005262e+01 -1.4666356182e+02  2.4972205717e+02  4.8000000000e+00 0. 9.
       -3     1     5     0     0   104  1.4585125069e+02 -2.2498751516e+01  5.6623561835e+01  1.5806726069e+02  5.0000000000e-01 0. 9.
        4     1     5     0   104     0  1.1885683230e+00  1.6090628280e+01 -6.2105381266e+00  1.7353437611e+01  1.5000000000e+00 0. 9.
        3     1     7     0   105     0 -7.4533144945e+00  2.1674774818e+01 -2.1495753273e+01  3.1427140645e+01  5.0000000000e-01 0. 9.
       -4     1     7     0     0   105 -9.3630988681e+01 -5.0357689627e+01 -2.0547438504e+02  2.3135391039e+02  1.5000000000e+00 0. 9.
#pdf   21   21  4.788879e-02  8.777810e-02  3.507952e+02  1.923150e+00  9.225340e-01
</event>
<event>
    12  9999  1.000000e+00  1.933693e+02  7.884692e-03  1.061696e-01
       21    -1     0     0   101   102  0.0000000000e+00  0.0000000000e+00  1.8748494156e+02  1.8748494156e+02  0.0000000000e+00 0. 9.
       21    -1     0     0   102   103  0.0000000000e+00  0.0000000000e+00 -2.0519617148e+02  2.0519617148e+02  0.0000000000e+00 0. 9.
        6     2     1     2   101     0 -1.6697454324e+01 -8.9128641231e+01 -4.1771162414e+01  1.9865288320e+02  1.7174230209e+02  1.224215e-13 9.
       -6     2     1     2     0   103  1.6697454324e+01  8.9128641231e+01  2.4059932496e+01  1.9402822984e+02  1.6983920028e+02  1.112459e-13 9.
       24     2     3     0     0     0  2.7213609646e+01 -2.9509594390e+01  2.9829961675e+01  9.5539483218e+01  8.1403743950e+01  1.496605e-13 9.
        5     1     3     0   101     0 -4.3911063970e+01 -5.9619046841e+01 -7.1601124090e+01  1.0311339998e+02  4.8000000000e+00 0. 9.
      -24     2     4     0     0     0 -4.5315117453e+01  7.3026791573e+01 -1.5869432376e+01  1.1838285457e+02  7.9851670077e+01  2.663928e-14 9.
       -5     1     4     0     0   103  6.2012571777e+01  1.6101849658e+01  3.9929364871e+01  7.5645375271e+01  4.8000000000e+00 0. 9.
       -3     1     5     0     0   104  3.7489249493e+01 -5.2562207110e+01  2.7407000804e+01  7.0140025213e+01  5.0000000000e-01 0. 9.
        4     1     5     0   104     0 -1.0275639848e+01  2.3052612721e+01  2.4229608717e+00  2.5399458005e+01  1.5000000000e+00 0. 9.
        3     1     7     0   105     0 -5.4024391626e+01  2.5818441684e+01  1.4433422235e+01  6.1593834910e+01  5.0000000000e-01 0. 9.
       -4     1     7     0     0   105  8.7092741728e+00  4.7208349889e+01 -3.0302854611e+01  5.6789019655e+01  1.5000000000e+00 0. 9.
#pdf   21   21  2.884384e-02  3.156864e-02  1.925307e+02  3.317978e+00  3.045224e+00
</event>
<event>
    12  9999  1.000000e+00  1.771055e+02  7.876780e-03  1.073188e-01
       21    -1     0     0   101   102  0.0000000000e+00  0.0000000000e+00  1.2930849196e+02  1.2930849196e+02  0.0000000000e+00 0. 9.
       21    -1     0     0   103   101  0.0000000000e+00  0.0000000000e+00 -2.5390625630e+02  2.5390625630e+02  0.0000000000e+00 0. 9.
        6     2     1     2   103     0 -4.1599099271e+01  2.4230441693e+01 -1.0266164030e+02  2.0439609111e+02  1.7006101937e+02  3.091200e-13 9.
       -6     2     1     2     0   102  4.1599099271e+01 -2.4230441693e+01 -2.1936124046e+01  1.7881865715e+02  1.7081369746e+02  3.286031e-14 9.
       24     2     3     0     0     0 -6.8956197925e+01  4.8089728269e+01 -2.5878158127e+01  1.1932894389e+02  8.0635839329e+01  3.575537e-14 9.
        5     1     3     0   103     0  2.7357098654e+01 -2.3859286577e+01 -7.6783482172e+01  8.5067147226e+01  4.8000000000e+00 0. 9.
      -24     2     4     0     0     0  1.6138925092e+01  4.4962857237e+01 -4.9829086525e+01  9.9844038172e+01  7.2137165598e+01  3.871226e-14 9.
       -5     1     4     0     0   102  2.5460174179e+01 -6.9193298930e+01  2.7892962480e+01  7.8974618973e+01  4.8000000000e+00 0. 9.
      -15     1     5     0     0     0 -7.3450465538e+01  1.4776598324e+01 -3.7448243409e+01  8.3778557934e+01  1.7768200000e+00  5.147245e-02 9.
       16     1     5     0     0     0  4.4942676125e+00  3.3313129945e+01  1.1570085282e+01  3.5550385955e+01  0.0000000000e+00 0. 9.
        3     1     7     0   104     0  3.1763961008e+01 -6.7501106327e+00 -1.8454611589e+01  3.7354195231e+01  5.0000000000e-01 0. 9.
       -4     1     7     0     0   104 -1.5625035915e+01  5.1712967870e+01 -3.1374474936e+01  6.2489842941e+01  1.5000000000e+00 0. 9.
#pdf   21   21  1.989361e-02  3.906250e-02  1.767437e+02  4.644340e+00  2.478470e+00
</event>
<event>
    12  9999  1.000000e+00  1.813945e+02  7.878934e-03  1.070033e-01
       21    -1     0     0   101   102  0.0000000000e+00  0.0000000000e+00  3.9353743601e+01  3.9353743601e+01  0.0000000000e+00 0. 9.
       21    -1     0     0   102   103  0.0000000000e+00  0.0000000000e+00 -1.2323835804e+03  1.2323835804e+03  0.0000000000e+00 0. 9.
        6     2     1     2   101     0  3.6121061365e+01 -4.8535061996e+01 -9.5744876808e+02  9.7451059768e+02  1.7117937424e+02  1.122595e-13 9.
       -6     2     1     2     0   103 -3.6121061365e+01  4.8535061996e+01 -2.3558106872e+02  2.9722672633e+02  1.7083589666e+02  1.919704e-13 9.
       24     2     3     0     0     0 -2.7745642992e+01 -4.8981631570e+01 -3.3553482879e+02  3.4930731615e+02  7.9138858003e+01  1.439497e-13 9.
        5     1     3     0   101     0  6.3866704357e+01  4.4656957428e-01 -6.2191393929e+02  6.2520328153e+02  4.8000000000e+00 0. 9.
      -24     2     4     0     0     0 -8.6040420378e+01  2.2114331434e+01 -1.2341806267e+02  1.7155422602e+02  7.9415594681e+01  1.666322e-16 9.
       -5     1     4     0     0   103  4.9919359013e+01  2.6420730562e+01 -1.1216300605e+02  1.2567250030e+02  4.8000000000e+00 0. 9.
       -1     1     5     0     0   104  2.7083787243e+00 -4.4691683694e+01 -7.7962479843e+01  8.9905167093e+01  3.3000000000e-01 0. 9.
        2     1     5     0   104     0 -3.0454021717e+01 -4.2899478760e+00 -2.5757234895e+02  2.5940214906e+02  3.3000000000e-01 0. 9.
        3     1     7     0   105     0 -3.8706573323e+01  2.1617754706e+01 -5.7445359028e+00  4.4707670815e+01  5.0000000000e-01 0. 9.
       -4     1     7     0     0   105 -4.7333847055e+01  4.9657672757e-01 -1.1767352677e+02  1.2684655521e+02  1.5000000000e+00 0. 9.
#pdf   21   21  6.054422e-03  1.895975e-01  1.812327e+02  1.173082e+01  3.005733e-01
</event>
<event>
    12  9999  1.000000e+00  1.727079e+02  7.874519e-03  1.076523e-01
       21    -1     0     0   101   102  0.0000000000e+00  0.0000000000e+00  1.2371969042e+03  1.2371969042e+03  0.0000000000e+00 0. 9.
       21    -1     0     0   102   103  0.0000000000e+00  0.0000000000e+00 -2.4465157242e+01  2.4465157242e+01  0.0000000000e+00 0. 9.
        6     2     1     2   101     0 -2.2056320695e+00 -1.7999015757e+01  6.8494483527e+02  7.0656430556e+02  1.7249597431e+02  1.399516e-13 9.
       -6     2     1     2     0   103  2.2056320695e+00  1.7999015757e+01  5.2778691169e+02  5.5509775588e+02  1.7101363995e+02  9.896484e-14 9.
       24     2     3     0     0     0  1.8112084839e+01  3.8446785352e+01  5.6639876681e+02  5.7361638934e+02  8.0137357983e+01  1.302871e-13 9.
        5     1     3     0   101     0 -2.0317716909e+01 -5.6445801109e+01  1.1854606845e+02  1.3294791623e+02  4.8000000000e+00 0. 9.
      -24     2     4     0     0     0  6.4606785862e+01  2.7535718849e+01  3.6367107017e+02  3.7919465148e+02  8.1238438185e+01  1.655791e-13 9.
       -5     1     4     0     0   103 -6.2401153793e+01 -9.5367030920e+00  1.6411584152e+02  1.7590310440e+02  4.8000000000e+00 0. 9.
       -1     1     5     0     0   104  3.4146650006e+00 -2.0042100268e+01  2.9013369132e+02  2.9084534286e+02  3.3000000000e-01 0. 9.
        2     1     5     0   104     0  1.4697419839e+01  5.8488885620e+01  2.7626507549e+02  2.8277104648e+02  3.3000000000e-01 0. 9.
        3     1     7     0   105     0  2.6227238206e+01  5.4173574545e+01  2.2179667458e+02  2.2981875263e+02  5.0000000000e-01 0. 9.
       -4     1     7     0     0   105  3.8379547656e+01 -2.6637855695e+01  1.4187439559e+02  1.4937589885e+02  1.5000000000e+00 0. 9.
#pdf   21   21  1.903380e-01  3.763870e-03  1.719724e+02  3.009831e-01  1.623185e+01
</event>
<event>
    12  9999  1.000000e+00  1.773198e+02  7.876889e-03  1.073028e-01
        2    -1     0     0   101     0  0.0000000000e+00  0.0000000000e+00  2.1168643640e+03  2.1168643640e+03  0.0000000000e+00 0. 9.
       -2    -1     0     0     0   102  0.0000000000e+00  0.0000000000e+00 -2.1696030502e+01  2.1696030502e+01  0.0000000000e+00 0. 9.
        6     2     1     2   101     0  3.2503231432e+01  9.3141192684e+01  1.5585851334e+03  1.5666671448e+03  1.2460570853e+02  2.686982e-13 9.
       -6     2     1     2     0   102 -3.2503231432e+01 -9.3141192684e+01  5.3658320007e+02  5.7189324971e+02  1.7148940678e+02  1.417699e-14 9.
       24     2     3     0     0     0  3.5040249915e+01  3.0162445210e+01  7.8313787168e+02  7.8864770104e+02  8.0763098550e+01  1.288388e-13 9.
        5     1     3     0   101     0 -2.5370184834e+00  6.2978747474e+01  7.7544726173e+02  7.7801944373e+02  4.8000000000e+00 0. 9.
      -24     2     4     0     0     0 -7.4330347978e+01 -5.1626673409e+01  2.3222963182e+02  2.6184954716e+02  8.0276207006e+01  1.466968e-14 9.
       -5     1     4     0     0   102  4.1827116546e+01 -4.1514519275e+01  3.0435356824e+02  3.1004370255e+02  4.8000000000e+00 0. 9.
      -15     1     5     0     0     0  5.4811678156e+01  7.2873086942e-01  3.7753893844e+02  3.8150184566e+02  1.7768200000e+00  3.054462e-02 9.
       16     1     5     0     0     0 -1.9771428241e+01  2.9433714341e+01  4.0559893324e+02  4.0714585539e+02  0.0000000000e+00 0. 9.
       11     1     7     0     0     0 -2.1937154069e+01  2.1563347929e+01  6.5945375481e+01  7.2766814209e+01  5.1100000000e-04 0. 9.
      -12     1     7     0     0     0 -5.2393193909e+01 -7.3190021338e+01  1.6628425634e+02  1.8908273295e+02  0.0000000000e+00 0. 9.
#pdf    2   -2  3.256714e-01  3.337851e-03  1.589287e+02  2.784855e-01  9.139776e-01
</event>
<event>
    12  9999  1.000000e+00  3.577738e+02  7.940551e-03  9.877058e-02
       -2    -1     0     0     0   101  0.0000000000e+00  0.0000000000e+00  1.2438254983e+02  1.2438254983e+02  0.0000000000e+00 0. 9.
        2    -1     0     0   102     0  0.0000000000e+00  0.0000000000e+00 -2.3688734881e+03  2.3688734881e+03  0.0000000000e+00 0. 9.
       -6     2     1     2     0   101  6.6320105693e+01 -3.0648304529e+02 -1.8505780451e+02  4.0301888088e+02  1.7276461984e+02  6.955080e-14 9.
        6     2     1     2   102     0 -6.6320105693e+01  3.0648304529e+02 -2.0594331338e+03  2.0902371571e+03  1.7174494687e+02  1.738390e-13 9.
      -24     2     3     0     0     0 -1.9900431549e+01 -1.9576609084e+02 -1.4605700340e+02  2.5729198723e+02  7.8397250943e+01  1.849370e-13 9.
       -5     1     3     0     0   101  8.6220537243e+01 -1.1071695445e+02 -3.9000801114e+01  1.4572689365e+02  4.8000000000e+00 0. 9.
       24     2     4     0     0     0  3.0086227232e+01  1.6171780470e+02 -8.8185036051e+02  8.9986940556e+02  7.1042658350e+01  2.716831e-14 9.
        5     1     4     0   102     0 -9.6406332925e+01  1.4476524059e+02 -1.1775827733e+03  1.1903677515e+03  4.8000000000e+00 0. 9.
        3     1     5     0   103     0  4.6346750580e+00 -1.1514557970e+02 -4.0357595529e+01  1.2210229423e+02  5.0000000000e-01 0. 9.
       -4     1     5     0     0   103 -2.4535106607e+01 -8.0620511132e+01 -1.0569940787e+02  1.3518969301e+02  1.5000000000e+00 0. 9.
       -1     1     7     0     0   104  4.8662957975e+00  1.3905988009e+01 -2.5136315019e+02  2.5179475671e+02  3.3000000000e-01 0. 9.
        4     1     7     0   104     0  2.5219931434e+01  1.4781181669e+02 -6.3048721033e+02  6.4807464885e+02  1.5000000000e+00 0. 9.
#pdf   -2    2  1.913578e-02  3.644421e-01  3.575284e+02  3.509709e-01  2.093343e-01
</event>
<event>
    12  9999  1.000000e+00  2.201090e+02  7.896385e-03  1.045201e-01
       21    -1     0     0   101   102  0.0000000000e+00  0.0000000000e+00  4.3648348789e+02  4.3648348789e+02  0.0000000000e+00 0. 9.
       21    -1     0     0   103   101  0.0000000000e+00  0.0000000000e+00 -1.4005777918e+02  1.4005777918e+02  0.0000000000e+00 0. 9.
        6     2     1     2   103     0 -3.9826513976e+01 -1.3347739772e+02  1.6626308221e+01  2.2022205659e+02  1.6976145960e+02  1.880221e-13 9.
       -6     2     1     2     0   102  3.9826513976e+01  1.3347739772e+02  2.7979940049e+02  3.5631921049e+02  1.7109444271e+02  1.793488e-13 9.
       24     2     3     0     0     0 -2.0643377676e+01 -1.4981960473e+02 -2.2929668720e+01  1.7307573372e+02  8.0977632057e+01  1.338783e-13 9.
        5     1     3     0   103     0 -1.9183136300e+01  1.6342207003e+01  3.9555976941e+01  4.7146322866e+01  4.8000000000e+00 0. 9.
      -24     2     4     0     0     0  6.4950330152e+01  6.9199802208e+01  8.7771249280e+01  1.5220976366e+02  8.0354601247e+01  9.419135e-14 9.
       -5     1     4     0     0   102 -2.5123816176e+01  6.4277595515e+01  1.9202815121e+02  2.0410944682e+02  4.8000000000e+00 0. 9.
       -1     1     5     0     0   104 -3.3898679839e+00 -1.3566989942e+02 -4.3714695830e+01  1.4257943872e+02  3.3000000000e-01 0. 9.
        2     1     5     0   104     0 -1.7253509692e+01 -1.4149705305e+01  2.0785027111e+01  3.0496295003e+01  3.3000000000e-01 0. 9.
       15     1     7     0     0     0  8.9590394694e+00  4.2709005543e+01  7.8148890506e+01  8.9525022867e+01  1.7768200000e+00  1.114534e-01 9.
      -16     1     7     0     0     0  5.5991290683e+01  2.6490796665e+01  9.6223587745e+00  6.2684740796e+01  0.0000000000e+00 0. 9.
#pdf   21   21  6.715131e-02  2.154735e-02  2.195935e+02  1.348939e+00  4.312263e+00
</event>
<event>
    12  9999  1.000000e+00  1.832109e+02  7.879831e-03  1.068725e-01
       21    -1     0     0   101   102  0.0000000000e+00  0.0000000000e+00  6.0811482360e+02  6.0811482360e+02  0.0000000000e+00 0. 9.
       21    -1     0     0   102   103  0.0000000000e+00  0.0000000000e+00 -1.2379548775e+02  1.2379548775e+02  0.0000000000e+00 0. 9.
        6     2     1     2   101     0 -2.4510828364e+01 -6.0470464058e+01  5.1505570381e+02  5.4694671547e+02  1.7207810380e+02  5.798407e-13 9.
       -6     2     1     2     0   103  2.4510828364e+01  6.0470464058e+01 -3.0736367961e+01  1.8496359589e+02  1.7032131328e+02  3.993968e-13 9.
       24     2     3     0     0     0 -9.5528849914e+00  3.0441274208e+01  3.1005901358e+02  3.2214598765e+02  8.1384990438e+01  1.145610e-13 9.
        5     1     3     0   101     0 -1.4957943372e+01 -9.0911738266e+01  2.0499669022e+02  2.2480072782e+02  4.8000000000e+00 0. 9.
      -24     2     4     0     0     0  1.5305778568e+01  1.5506615431e+00  3.9447065700e+01  9.2740874009e+01  8.2511376857e+01  8.998721e-14 9.
       -5     1     4     0     0   103  9.2050497963e+00  5.8919802515e+01 -7.0183433661e+01  9.2222721878e+01  4.8000000000e+00 0. 9.
      -15     1     5     0     0     0 -3.5842485647e+01 -2.2148387141e+00  2.1858869897e+02  2.2152599327e+02  1.7768200000e+00  2.614593e-02 9.
       16     1     5     0     0     0  2.6289600656e+01  3.2656112922e+01  9.1470314619e+01  1.0061999439e+02  0.0000000000e+00 0. 9.
        3     1     7     0   104     0 -6.5769086216e+00 -1.0957833478e+01 -2.2480134915e+01  2.5863803033e+01  5.0000000000e-01 0. 9.
       -4     1     7     0     0   104  2.1882687189e+01  1.2508495021e+01  6.1927200615e+01  6.6877070976e+01  1.5000000000e+00 0. 9.
#pdf   21   21  9.355613e-02  1.904546e-02  1.823919e+02  9.031197e-01  4.819659e+00
</event>
<event>
    12  9999  1.000000e+00  1.860980e+02  7.881239e-03  1.066678e-01
       21    -1     0     0   101   102  0.0000000000e+00  0.0000000000e+00  2.0836733060e+01  2.0836733060e+01  0.0000000000e+00 0. 9.
       21    -1     0     0   102   103  0.0000000000e+00  0.0000000000e+00 -1.6631754968e+03  1.6631754968e+03  0.0000000000e+00 0. 9.
        6     2     1     2   101     0 -4.2755118119e+01  5.3611786214e+01 -8.4846517339e+02  8.6897693541e+02  1.7471559765e+02  4.068700e-14 9.
       -6     2     1     2     0   103  4.2755118119e+01 -5.3611786214e+01 -7.9387359030e+02  8.1503529441e+02  1.7130391123e+02  2.178304e-13 9.
       24     2     3     0     0     0 -9.4300640292e+01  3.9374187095e+01 -6.7581002833e+02  6.8816629081e+02  8.0066922265e+01  1.975372e-13 9.
        5     1     3     0   101     0  5.1545522173e+01  1.4237599119e+01 -1.7265514506e+02  1.8081064460e+02  4.8000000000e+00 0. 9.
      -24     2     4     0     0     0 -2.8104082364e+01  5.2232336655e+00 -4.9280025522e+02  5.0015312763e+02  8.0522903055e+01  5.605477e-14 9.
       -5     1     4     0     0   103  7.0859200483e+01 -5.8835019880e+01 -3.0107333509e+02  3.1488216678e+02  4.8000000000e+00 0. 9.
       -3     1     5     0     0   104 -7.7833696133e+01  1.8698840966e+01 -2.7318426515e+02  2.8467107973e+02  5.0000000000e-01 0. 9.
        4     1     5     0   104     0 -1.6466944159e+01  2.0675346130e+01 -4.0262576318e+02  4.0349521108e+02  1.5000000000e+00 0. 9.
       11     1     7     0     0     0 -3.6496667983e+01 -3.0998983985e+01 -2.5376084150e+02  2.5823924656e+02  5.1100000000e-04 0. 9.
      -12     1     7     0     0     0  8.3925856185e+00  3.6222217650e+01 -2.3903941372e+02  2.4191388107e+02  0.0000000000e+00 0. 9.
#pdf   21   21  3.205651e-03  2.558732e-01  1.845190e+02  1.812797e+01  1.586379e-01
</event>
<event>
    12  9999  1.000000e+00  2.141466e+02  7.893903e-03  1.048655e-01
        2    -1     0     0   101     0  0.0000000000e+00  0.0000000000e+00  1.7599947518e+03  1.7599947518e+03  0.0000000000e+00 0. 9.
       -2    -1     0     0     0   102  0.0000000000e+00  0.0000000000e+00 -2.6531439485e+01  2.6531439485e+01  0.0000000000e+00 0. 9.
        6     2     1     2   101     0  1.1469667875e+02 -5.3856580695e+01  9.8597510533e+02  1.0089462475e+03  1.7253916246e+02  4.946676e-15 9.
       -6     2     1     2     0   102 -1.1469667875e+02  5.3856580695e+01  7.4748820700e+02  7.7757994382e+02  1.7273126533e+02  2.134544e-13 9.
       24     2     3     0     0     0  3.0643363872e+01  8.5333958079e+00  6.7712029250e+02  6.8279934145e+02  8.1922009077e+01  3.636597e-14 9.
        5     1     3     0   101     0  8.4053314874e+01 -6.2389976503e+01  3.0885481282e+02  3.2614690603e+02  4.8000000000e+00 0. 9.
      -24     2     4     0     0     0 -8.6391663502e+01  8.6793227969e+01  3.7647270674e+02  4.0400058404e+02  8.0549295690e+01  2.230286e-14 9.
       -5     1     4     0     0   102 -2.8305015244e+01 -3.2936647273e+01  3.7101550026e+02  3.7357935978e+02  4.8000000000e+00 0. 9.
       -3     1     5     0     0   103 -3.0736774024e+00  1.6126136563e+01  2.5950010367e+01  3.0710793075e+01  5.0000000000e-01 0. 9.
        4     1     5     0   103     0  3.3717041274e+01 -7.5927407553e+00  6.5117028214e+02  6.5208854838e+02  1.5000000000e+00 0. 9.
        1     1     7     0   104     0 -3.5947134994e+01  6.3459878294e+01  3.0423451768e+02  3.1285476393e+02  3.3000000000e-01 0. 9.
       -2     1     7     0     0   104 -5.0444528509e+01  2.3333349675e+01  7.2238189064e+01  9.1145820105e+01  3.3000000000e-01 0. 9.
#pdf    2   -2  2.707684e-01  4.081760e-03  2.140692e+02  3.442555e-01  8.507054e-01
</event>
<event>
    12  9999  1.000000e+00  3.152256e+02  7.928992e-03  1.002065e-01
       21    -1     0     0   101   102  0.0000000000e+00  0.0000000000e+00  2.2690093551e+02  2.2690093551e+02  0.0000000000e+00 0. 9.
       21    -1     0     0   102   103  0.0000000000e+00  0.0000000000e+00 -4.7049848512e+02  4.7049848512e+02  0.0000000000e+00 0. 9.
        6     2     1     2   101     0  2.2259681482e+02 -1.1627509409e+02 -2.1684623861e+02  3.9252257247e+02  2.0971990661e+02  2.464537e-14 9.
       -6     2     1     2     0   103 -2.2259681482e+02  1.1627509409e+02 -2.6751311005e+01  3.0487684816e+02  1.7077769302e+02  1.234838e-13 9.
       24     2     3     0     0     0  2.8574784605e+01  1.0707113185e+01 -1.0301469771e+02  1.3416296093e+02  8.0352420957e+01  8.587135e-15 9.
        5     1     3     0   101     0  1.9402203021e+02 -1.2698220727e+02 -1.1383154090e+02  2.5835961154e+02  4.8000000000e+00 0. 9.
      -24     2     4     0     0     0 -1.0504139805e+02 -5.5563230081e+00 -2.9924323173e+01  1.3548004120e+02  7.9967546020e+01  1.812502e-14 9.
       -5     1     4     0     0   103 -1.1755541676e+02  1.2183141709e+02  3.1730121673e+00  1.6939680696e+02  4.8000000000e+00 0. 9.
       -3     1     5     0     0   104  2.5893466394e+01 -2.4038928538e+01 -1.3042370208e+01  3.7665569262e+01  5.0000000000e-01 0. 9.
        4     1     5     0   104     0  2.6813182106e+00  3.4746041723e+01 -8.9972327506e+01  9.6497391672e+01  1.5000000000e+00 0. 9.
        1     1     7     0   105     0 -9.8653741272e+01  1.0186353704e+01  2.1284584278e+00  9.9201621479e+01  3.3000000000e-01 0. 9.
       -2     1     7     0     0   105 -6.3876567797e+00 -1.5742676713e+01 -3.2052781600e+01  3.6278419722e+01  3.3000000000e-01 0. 9.
#pdf   21   21  3.490784e-02  7.238438e-02  3.037009e+02  2.703487e+00  1.198540e+00
</event>
<event>
    12  9999  1.000000e+00  1.743267e+02  7.875358e-03  1.075283e-01
       21    -1     0     0   101   102  0.0000000000e+00  0.0000000000e+00  2.1163215097e+01  2.1163215097e+01  0.0000000000e+00 0. 9.
       21    -1     0     0   102   103  0.0000000000e+00  0.0000000000e+00 -2.4378316073e+03  2.4378316073e+03  0.0000000000e+00 0. 9.
        6     2     1     2   101     0  2.8189798910e+01  2.0625798857e+01 -4.2045550066e+02  4.5519108897e+02  1.7086840289e+02  2.916235e-13 9.
       -6     2     1     2     0   103 -2.8189798910e+01 -2.0625798857e+01 -1.9962128915e+03  2.0038037334e+03  1.7071439709e+02  3.127319e-13 9.
       24     2     3     0     0     0 -1.4208191903e+01  2.9610196809e+01 -1.0998831403e+02  1.4167677829e+02  8.3043625948e+01  8.866303e-15 9.
        5     1     3     0   101     0  4.2397990813e+01 -8.9843979524e+00 -3.1046718662e+02  3.1351431068e+02  4.8000000000e+00 0. 9.
      -24     2     4     0     0     0  5.8511970287e+00  4.8884307546e+01 -1.2488829786e+03  1.2524612795e+03  8.0787686943e+01  3.598374e-13 9.
       -5     1     4     0     0   103 -3.4040995938e+01 -6.9510106403e+01 -7.4732991291e+02  7.5134245390e+02  4.8000000000e+00 0. 9.
      -15     1     5     0     0     0  1.2061685202e+01 -2.3959872632e+01 -1.9190794671e+01  3.3030341140e+01  1.7768200000e+00  1.152780e-01 9.
       16     1     5     0     0     0 -2.6269877106e+01  5.3570069441e+01 -9.0797519361e+01  1.0864643715e+02  0.0000000000e+00 0. 9.
       15     1     7     0     0     0 -2.8874642163e+01  4.1476784417e+01 -9.7145748644e+02  9.7277277596e+02  1.7768200000e+00  1.444063e-02 9.
      -16     1     7     0     0     0  3.4725839192e+01  7.4075231292e+00 -2.7742549215e+02  2.7968850352e+02  0.0000000000e+00 0. 9.
#pdf   21   21  3.255879e-03  3.750510e-01  1.742512e+02  1.788196e+01  4.791348e-02
</event>
<event>
    12  9999  1.000000e+00  1.725063e+02  7.874414e-03  1.076679e-01
       -2    -1     0     0     0   101  0.0000000000e+00  0.0000000000e+00  9.1879793356e+01  9.1879793356e+01  0.0000000000e+00 0. 9.
        2    -1     0     0   102     0  0.0000000000e+00  0.0000000000e+00 -3.2391192938e+02  3.2391192938e+02  0.0000000000e+00 0. 9.
       -6     2     1     2     0   101 -2.3240511482e+01 -2.6915239507e+00 -1.1428193140e+02  2.0712940920e+02  1.7115743231e+02  1.245544e-13 9.
        6     2     1     2   102     0  2.3240511482e+01  2.6915239507e+00 -1.1775020463e+02  2.0866231354e+02  1.7066776124e+02  1.808466e-14 9.
      -24     2     3     0     0     0  4.1972425764e+01  2.7582176509e+01 -9.5491121998e+01  1.3266224434e+02  7.7189738356e+01  1.436051e-14 9.
       -5     1     3     0     0   101 -6.5212937245e+01 -3.0273700460e+01 -1.8790809402e+01  7.4467164856e+01  4.8000000000e+00 0. 9.
       24     2     4     0     0     0 -2.1276114214e+01  3.0593843355e+00 -1.3401264050e+02  1.6102438637e+02  8.6645440296e+01  2.959920e-13 9.
        5     1     4     0   102     0  4.4516625696e+01 -3.6786038484e-01  1.6262435874e+01  4.7637927171e+01  4.8000000000e+00 0. 9.
        3     1     5     0   103     0  3.5796398138e+01  5.2402578225e+01 -5.1401451706e+01  8.1668669401e+01  5.0000000000e-01 0. 9.
       -4     1     5     0     0   103  6.1760276262e+00 -2.4820401716e+01 -4.4089670292e+01  5.0993574939e+01  1.5000000000e+00 0. 9.
      -15     1     7     0     0     0  1.7854446141e+01  2.1493848939e+01 -1.0076407006e+01  2.9756643908e+01  1.7768200000e+00  1.397663e-01 9.
       16     1     7     0     0     0 -3.9130560355e+01 -1.8434464604e+01 -1.2393623349e+02  1.3126774246e+02  0.0000000000e+00 0. 9.
#pdf   -2    2  1.413535e-02  4.983260e-02  1.722639e+02  4.198555e-01  6.224375e-01
</event>
<event>
    12  9999  1.000000e+00  1.875687e+02  7.881948e-03  1.065651e-01
       21    -1     0     0   101   102  0.0000000000e+00  0.0000000000e+00  6.6564362212e+02  6.6564362212e+02  0.0000000000e+00 0. 9.
       21    -1     0     0   102   103  0.0000000000e+00  0.0000000000e+00 -2.9172260589e+02  2.9172260589e+02  0.0000000000e+00 0. 9.
        6     2     1     2   101     0 -8.8815716007e+00 -7.1340465465e+01  6.1966913787e+02  6.4675127248e+02  1.7067226986e+02  5.680900e-14 9.
       -6     2     1     2     0   103  8.8815716007e+00  7.1340465465e+01 -2.4574812164e+02  3.1061495553e+02  1.7584415539e+02  1.192966e-14 9.
       24     2     3     0     0     0  1.0698755232e+01  8.8577733643e+00  4.5730220162e+02  4.6453928413e+02  8.0489250118e+01  2.095913e-13 9.
        5     1     3     0   101     0 -1.9580326833e+01 -8.0198238829e+01  1.6236693625e+02  1.8221198835e+02  4.8000000000e+00 0. 9.
      -24     2     4     0     0     0  7.5634579292e+01  2.2730029757e+01 -1.4146330638e+02  1.7750860261e+02  7.2527188764e+01  3.887242e-14 9.
       -5     1     4     0     0   103 -6.6753007691e+01  4.8610435708e+01 -1.0428481526e+02  1.3310635293e+02  4.8000000000e+00 0. 9.
      -15     1     5     0     0     0 -3.1149611172e+01  4.6875432513e+00  1.0230164341e+02  1.0705631542e+02  1.7768200000e+00  1.934179e-02 9.
       16     1     5     0     0     0  4.1848366405e+01  4.1702301130e+00  3.5500055821e+02  3.5748296871e+02  0.0000000000e+00 0. 9.
        1     1     7     0   104     0  6.7633189113e+01 -1.2193691388e+01 -1.1062903789e+02  1.3023758022e+02  3.3000000000e-01 0. 9.
       -2     1     7     0     0   104  8.0013901786e+00  3.4923721145e+01 -3.0834268492e+01  4.7271022380e+01  3.3000000000e-01 0. 9.
#pdf   21   21  1.024067e-01  4.488040e-02  1.851955e+02  7.978944e-01  2.143157e+00
</event>
<event>
    12  9999  1.000000e+00  2.357115e+02  7.902582e-03  1.036688e-01
       21    -1     0     0   101   102  0.0000000000e+00  0.0000000000e+00  8.9502299623e+01  8.9502299623e+01  0.0000000000e+00 0. 9.
       21    -1     0     0   103   101  0.0000000000e+00  0.0000000000e+00 -6.5019232802e+02  6.5019232802e+02  0.0000000000e+00 0. 9.
        6     2     1     2   103     0  1.1657626148e+02  1.1271387664e+02 -3.5913730171e+02  4.2963388944e+02  1.7120524158e+02  4.891465e-13 9.
       -6     2     1     2     0   102 -1.1657626148e+02 -1.1271387664e+02 -2.0155272668e+02  3.1006073820e+02  1.7093775773e+02  5.116817e-13 9.
       24     2     3     0     0     0  6.1732080958e+01  1.2728063971e+02 -1.8535041505e+02  2.4675415655e+02  8.0756587051e+01  5.041812e-14 9.
        5     1     3     0   103     0  5.4844180519e+01 -1.4566763074e+01 -1.7378688667e+02  1.8287973288e+02  4.8000000000e+00 0. 9.
      -24     2     4     0     0     0 -1.1438325113e+02 -6.5340416019e+01 -8.0273612201e+01  1.7975065542e+02  9.2268885355e+01  2.661998e-14 9.
       -5     1     4     0     0   102 -2.1930103478e+00 -4.7373460619e+01 -1.2127911448e+02  1.3031008278e+02  4.8000000000e+00 0. 9.
       -3     1     5     0     0   104 -1.7231704648e+01  6.8619236865e+00 -2.6425807908e+01  3.2289177217e+01  5.0000000000e-01 0. 9.
        4     1     5     0   104     0  7.8963785606e+01  1.2041871602e+02 -1.5892460714e+02  2.1446497933e+02  1.5000000000e+00 0. 9.
       11     1     7     0     0     0 -5.1300284455e+01 -1.4472389634e+00 -7.3585737340e+01  8.9714404785e+01  5.1100000000e-04 0. 9.
      -12     1     7     0     0     0 -6.3082966674e+01 -6.3893177056e+01 -6.6878748605e+00  9.0036250637e+01  0.0000000000e+00 0. 9.
#pdf   21   21  1.376958e-02  1.000296e-01  2.356144e+02  6.303558e+00  8.033557e-01
</event>
<event>
    12  9999  1.000000e+00  1.881353e+02  7.882219e-03  1.065258e-01
       21    -1     0     0   101   102  0.0000000000e+00  0.0000000000e+00  6.5871238763e+01  6.5871238763e+01  0.0000000000e+00 0. 9.
       21    -1     0     0   102   103  0.0000000000e+00  0.0000000000e+00 -7.6456838633e+02  7.6456838633e+02  0.0000000000e+00 0. 9.
        6     2     1     2   101     0  6.3207450205e+01 -4.5350513813e+01 -5.7536325217e+02  6.0525820732e+02  1.7100518916e+02  1.260029e-13 9.
       -6     2     1     2     0   103 -6.3207450205e+01  4.5350513813e+01 -1.2333389540e+02  2.2518141778e+02  1.7159128851e+02  7.276867e-14 9.
       24     2     3     0     0     0  1.0915749227e+01  3.1985368016e+01 -3.0283937328e+02  3.1714787225e+02  8.7913989312e+01  3.919734e-14 9.
        5     1     3     0   101     0  5.2291700978e+01 -7.7335881829e+01 -2.7252387889e+02  2.8811033507e+02  4.8000000000e+00 0. 9.
      -24     2     4     0     0     0  5.1897683825e+00 -1.8100038644e+01 -3.7763234797e+01  9.8494677846e+01  8.8997722257e+01  3.064645e-14 9.
       -5     1     4     0     0   103 -6.8397218588e+01  6.3450552456e+01 -8.5570660608e+01  1.2668673993e+02  4.8000000000e+00 0. 9.
       -1     1     5     0     0   104 -2.5215152165e+01  2.2192343948e+01 -2.5081375710e+02  2.5305326254e+02  3.3000000000e-01 0. 9.
        2     1     5     0   104     0  3.6130901392e+01  9.7930240682e+00 -5.2025616174e+01  6.4094609712e+01  3.3000000000e-01 0. 9.
       11     1     7     0     0     0  7.5045206059e+00 -4.5485583857e+01  6.3346014968e+00  4.6533679682e+01  5.1100000000e-04 0. 9.
      -12     1     7     0     0     0 -2.3147522235e+00  2.7385545213e+01 -4.4097836294e+01  5.1960998164e+01  0.0000000000e+00 0. 9.
#pdf   21   21  1.013404e-02  1.176259e-01  1.878686e+02  8.029763e+00  6.545620e-01
</event>
<event>
    12  9999  1.000000e+00  2.354110e+02  7.902466e-03  1.036845e-01
       21    -1     0     0   101   102  0.0000000000e+00  0.0000000000e+00  3.7810960766e+02  3.7810960766e+02  0.0000000000e+00 0. 9.
       21    -1     0     0   103   101  0.0000000000e+00  0.0000000000e+00 -3.6626263268e+02  3.6626263268e+02  0.0000000000e+00 0. 9.
        6     2     1     2   103     0 -9.7401463093e+01  1.3009305106e+02 -2.8233290091e+02  3.6740575202e+02  1.6989371012e+02  1.673263e-13 9.
       -6     2     1     2     0   102  9.7401463093e+01 -1.3009305106e+02  2.9417987588e+02  3.7696648832e+02  1.7073572267e+02  3.479708e-13 9.
       24     2     3     0     0     0 -7.2788800867e+01  1.4541064649e+02 -2.8503132273e+02  3.3789756076e+02  8.0557066616e+01  4.187031e-13 9.
        5     1     3     0   103     0 -2.4612662225e+01 -1.5317595424e+01  2.6984218280e+00  2.9508191266e+01  4.8000000000e+00 0. 9.
      -24     2     4     0     0     0  7.7828565731e+01 -8.6487683879e+00  1.3289446137e+02  1.7406790026e+02  8.0663555575e+01  1.052901e-14 9.
       -5     1     4     0     0   102  1.9572897362e+01 -1.2144428267e+02  1.6128541451e+02  2.0289858806e+02  4.8000000000e+00 0. 9.
       -1     1     5     0     0   104  1.0134166655e+01  2.5105950665e+01 -1.5215150102e+01  3.1058328757e+01  3.3000000000e-01 0. 9.
        2     1     5     0   104     0 -8.2922967522e+01  1.2030469582e+02 -2.6981617263e+02  3.0683923200e+02  3.3000000000e-01 0. 9.
        3     1     7     0   105     0  4.2707092746e+01 -1.4139214117e+01  9.9474579916e+00  4.6076187637e+01  5.0000000000e-01 0. 9.
       -4     1     7     0     0   105  3.5121472984e+01  5.4904457295e+00  1.2294700338e+02  1.2799171262e+02  1.5000000000e+00 0. 9.
#pdf   21   21  5.817071e-02  5.634810e-02  2.351066e+02  1.587592e+00  1.646308e+00
</event>
<event>
    12  9999  1.000000e+00  1.867867e+02  7.881571e-03  1.066196e-01
       21    -1     0     0   101   102  0.0000000000e+00  0.0000000000e+00  9.7918576998e+01  9.7918576998e+01  0.0000000000e+00 0. 9.
       21    -1     0     0   102   103  0.0000000000e+00  0.0000000000e+00 -4.0396695299e+02  4.0396695299e+02  0.0000000000e+00 0. 9.
        6     2     1     2   101     0  5.7215531516e+01  5.4946736595e+01 -2.3906929467e+02  3.0326143308e+02  1.6888045544e+02  1.296438e-13 9.
       -6     2     1     2     0   103 -5.7215531516e+01 -5.4946736595e+01 -6.6979081327e+01  1.9862409691e+02  1.6932977774e+02  3.547981e-13 9.
       24     2     3     0     0     0 -1.2123957139e+00 -2.4118574738e+01 -1.4320769756e+02  1.6586553818e+02  8.0123383364e+01  5.612265e-14 9.
        5     1     3     0   101     0  5.8427927230e+01  7.9065311333e+01 -9.5861597102e+01  1.3739589490e+02  4.8000000000e+00 0. 9.
      -24     2     4     0     0     0 -6.5078660906e+01 -3.0914518958e+01 -1.0607127090e+02  1.5182008454e+02  8.1285201429e+01  3.995486e-13 9.
       -5     1     4     0     0   103  7.8631293896e+00 -2.4032217637e+01  3.9092189575e+01  4.6804012372e+01  4.8000000000e+00 0. 9.
      -11     1     5     0     0     0 -1.4804430751e+01  1.8007460404e+01 -1.0448514992e+02  1.0705412815e+02  5.1100000000e-04 0. 9.
       12     1     5     0     0     0  1.3592035037e+01 -4.2126035141e+01 -3.8722547648e+01  5.8811410028e+01  0.0000000000e+00 0. 9.
       15     1     7     0     0     0 -6.0736942829e-01  1.6468376781e+01 -5.3684517115e+01  5.6185058500e+01  1.7768200000e+00  1.245218e-02 9.
      -16     1     7     0     0     0 -6.4471291477e+01 -4.7382895739e+01 -5.2386753787e+01  9.5635026040e+01  0.0000000000e+00 0. 9.
#pdf   21   21  1.506440e-02  6.214876e-02  1.865834e+02  5.864573e+00  1.496443e+00
</event>
<event>
    12  9999  1.000000e+00  1.834106e+02  7.879929e-03  1.068582e-01
       21    -1     0     0   101   102  0.0000000000e+00  0.0000000000e+00  2.2280078546e+02  2.2280078546e+02  0.0000000000e+00 0. 9.
       21    -1     0     0   102   103  0.0000000000e+00  0.0000000000e+00 -1.5781735933e+02  1.5781735933e+02  0.0000000000e+00 0. 9.
        6     2     1     2   101     0  5.4935914284e+01  3.3741490966e+01  7.2074562644e+01  1.9697568604e+02  1.7160488169e+02  4.278815e-13 9.
       -6     2     1     2     0   103 -5.4935914284e+01 -3.3741490966e+01 -7.0911365186e+00  1.8364245875e+02  1.7180752471e+02  2.267243e-14 9.
       24     2     3     0     0     0  4.1163769800e+01  7.6461500573e+01  6.9809031075e+00  1.1776144682e+02  7.9235145826e+01  6.162445e-14 9.
        5     1     3     0   101     0  1.3772144484e+01 -4.2720009607e+01  6.5093659536e+01  7.9214239227e+01  4.8000000000e+00 0. 9.
      -24     2     4     0     0     0 -7.0352898946e+01  3.4643460600e+01  2.8043957594e+00  1.1268369202e+02  8.0870575980e+01  1.707294e-14 9.
       -5     1     4     0     0   103  1.5416984662e+01 -6.8384951565e+01 -9.8955322779e+00  7.0958766729e+01  4.8000000000e+00 0. 9.
       -1     1     5     0     0   104  1.5901508819e+01  6.2166284261e+01  3.8563565535e+01  7.4864960885e+01  3.3000000000e-01 0. 9.
        2     1     5     0   104     0  2.5262260981e+01  1.4295216311e+01 -3.1582662427e+01  4.2896485931e+01  3.3000000000e-01 0. 9.
        1     1     7     0   105     0 -2.2515741224e+01 -2.2419253730e+01  1.8239437797e+01  3.6638334185e+01  3.3000000000e-01 0. 9.
       -2     1     7     0     0   105 -4.7837157722e+01  5.7062714330e+01 -1.5435042038e+01  7.6045357835e+01  3.3000000000e-01 0. 9.
#pdf   21   21  3.427704e-02  2.427959e-02  1.833158e+02  2.817290e+00  3.893402e+00
</event>
<event>
    12  9999  1.000000e+00  2.041195e+02  7.889572e-03  1.054742e-01
       21    -1     0     0   101   102  0.0000000000e+00  0.0000000000e+00  1.2154543384e+02  1.2154543384e+02  0.0000000000e+00 0. 9.
       21    -1     0     0   103   101  0.0000000000e+00  0.0000000000e+00 -2.2336258494e+03  2.2336258494e+03  0.0000000000e+00 0. 9.
        6     2     1     2   103     0  3.1694436215e+01 -9.4314056538e+01 -2.1336619083e+03  2.1427521854e+03  1.7021783277e+02  2.902363e-13 9.
       -6     2     1     2     0   102 -3.1694436215e+01  9.4314056538e+01  2.1581492776e+01  2.1241909781e+02  1.8643077464e+02  8.767773e-15 9.
       24     2     3     0     0     0 -2.8168316070e+01  4.5094785768e-01 -9.6675297108e+02  9.7046234799e+02  7.9951262489e+01  4.853158e-15 9.
        5     1     3     0   103     0  5.9862752285e+01 -9.4765004396e+01 -1.1669089372e+03  1.1722898374e+03  4.8000000000e+00 0. 9.
      -24     2     4     0     0     0  2.2662357231e+01  3.8321893222e+01 -5.2333893731e+01  1.0482584658e+02  7.9167365391e+01  2.044212e-13 9.
       -5     1     4     0     0   102 -5.4356793446e+01  5.5992163316e+01  7.3915386507e+01  1.0759325122e+02  4.8000000000e+00 0. 9.
       -1     1     5     0     0   104  1.5789490825e+01  1.8767074525e+01 -1.2620503991e+02  1.2856645015e+02  3.3000000000e-01 0. 9.
        2     1     5     0   104     0 -4.3957806895e+01 -1.8316126667e+01 -8.4054793118e+02  8.4189589783e+02  3.3000000000e-01 0. 9.
        3     1     7     0   105     0 -2.3465258079e+01  3.0436155609e+01 -4.1897021124e+01  5.6855855319e+01  5.0000000000e-01 0. 9.
       -4     1     7     0     0   105  4.6127615310e+01  7.8857376136e+00 -1.0436872607e+01  4.7969991262e+01  1.5000000000e+00 0. 9.
#pdf   21   21  1.869930e-02  3.436347e-01  1.971644e+02  4.890594e+00  6.507151e-02
</event>
<event>
    12  9999  1.000000e+00  2.411844e+02  7.904661e-03  1.033866e-01
       21    -1     0     0   101   102  0.0000000000e+00  0.0000000000e+00  3.1060026998e+02  3.1060026998e+02  0.0000000000e+00 0. 9.
       21    -1     0     0   103   101  0.0000000000e+00  0.0000000000e+00 -4.8919353365e+02  4.8919353365e+02  0.0000000000e+00 0. 9.
        6     2     1     2   103     0 -3.3566069065e+01 -1.6648988532e+02 -4.0340284564e+02  4.6981992819e+02  1.7073765298e+02  3.272329e-14 9.
       -6     2     1     2     0   102  3.3566069065e+01  1.6648988532e+02  2.2480958196e+02  3.2997387544e+02  1.7174937386e+02  9.261482e-14 9.
       24     2     3     0     0     0 -2.0301855615e+01 -1.0666395468e+01 -1.4830659407e+02  1.7056412304e+02  8.1063782856e+01  9.401022e-14 9.
        5     1     3     0   103     0 -1.3264213450e+01 -1.5582348986e+02 -2.5509625157e+02  2.9925580515e+02  4.8000000000e+00 0. 9.
      -24     2     4     0     0     0 -3.5720279019e+01  4.5936680746e+01  1.4420307219e+02  1.6918170342e+02  6.6646873686e+01  9.468402e-14 9.
       -5     1     4     0     0   102  6.9286348084e+01  1.2055320458e+02  8.0606509772e+01  1.6079217202e+02  4.8000000000e+00 0. 9.
      -13     1     5     0     0     0  2.1102454455e+01 -3.0966373800e+01 -7.7199186226e+01  8.5813491995e+01  1.0566000000e-01  6.308334e+05 9.
       14     1     5     0     0     0 -4.1404310070e+01  2.0299978332e+01 -7.1107407842e+01  8.4750631046e+01  0.0000000000e+00 0. 9.
        1     1     7     0   104     0  1.3204399380e+01  2.1726820852e+01  8.4691349132e+01  8.8425926204e+01  3.3000000000e-01 0. 9.
       -2     1     7     0     0   104 -4.8924678399e+01  2.4209859894e+01  5.9511723061e+01  8.0755777219e+01  3.3000000000e-01 0. 9.
#pdf   21   21  4.778466e-02  7.526054e-02  2.408255e+02  1.973104e+00  1.164481e+00
</event>
<event>
    12  9999  1.000000e+00  1.721960e+02  7.874252e-03  1.076918e-01
       21    -1     0     0   101   102  0.0000000000e+00  0.0000000000e+00  3.4745858385e+02  3.4745858385e+02  0.0000000000e+00 0. 9.
       21    -1     0     0   103   101  0.0000000000e+00  0.0000000000e+00 -1.1690849305e+02  1.1690849305e+02  0.0000000000e+00 0. 9.
        6     2     1     2   103     0  3.8737964254e+01 -2.0378940934e+01 -7.4443016793e+00  1.6790796911e+02  1.6193127355e+02  2.006100e-14 9.
       -6     2     1     2     0   102 -3.8737964254e+01  2.0378940934e+01  2.3799439249e+02  2.9645910779e+02  1.7126219848e+02  1.571282e-14 9.
       24     2     3     0     0     0  4.8370142563e+01 -6.9067410957e+01  2.6332216105e+00  1.1703614540e+02  8.1120573994e+01  2.515618e-14 9.
        5     1     3     0   103     0 -9.6321783090e+00  4.8688470022e+01 -1.0077523290e+01  5.0871823712e+01  4.8000000000e+00 0. 9.
      -24     2     4     0     0     0 -7.1179978871e+01 -3.0551862508e+01  1.2140453993e+02  1.6507164731e+02  8.0681972808e+01  5.493586e-14 9.
       -5     1     4     0     0   102  3.2442014617e+01  5.0930803443e+01  1.1658985256e+02  1.3138746048e+02  4.8000000000e+00 0. 9.
      -15     1     5     0     0     0  6.0861775326e+01 -1.7060652237e+01 -2.6620093503e+00  6.3288742551e+01  1.7768200000e+00  5.372459e-02 9.
       16     1     5     0     0     0 -1.2491632763e+01 -5.2006758720e+01  5.2952309609e+00  5.3747402845e+01  0.0000000000e+00 0. 9.
        3     1     7     0   104     0 -7.4382664452e+00 -3.7567338912e+01  8.0082093682e+01  8.8769502021e+01  5.0000000000e-01 0. 9.
       -4     1     7     0     0   104 -6.3741712426e+01  7.0154764037e+00  4.1322446245e+01  7.6302145290e+01  1.5000000000e+00 0. 9.
#pdf   21   21  5.345517e-02  1.798592e-02  1.677429e+02  1.786363e+00  5.063976e+00
</event>
<event>
    12  9999  1.000000e+00  2.107516e+02  7.892459e-03  1.050675e-01
       21    -1     0     0   101   102  0.0000000000e+00  0.0000000000e+00  8.6147018179e+02  8.6147018179e+02  0.0000000000e+00 0. 9.
       21    -1     0     0   103   101  0.0000000000e+00  0.0000000000e+00 -7.4457878197e+01  7.4457878197e+01  0.0000000000e+00 0. 9.
        6     2     1     2   103     0 -1.2466850142e+02 -2.3519736844e+00  1.3266050494e+02  2.4815596124e+02  1.6862622721e+02  1.438086e-13 9.
       -6     2     1     2     0   102  1.2466850142e+02  2.3519736844e+00  6.5435179866e+02  6.8777209875e+02  1.7119116912e+02  5.108742e-13 9.
       24     2     3     0     0     0 -4.1042657116e+01  5.3883420720e+01  9.1782941809e+01  1.3929955773e+02  7.9952083424e+01  1.319214e-14 9.
        5     1     3     0   103     0 -8.3625844302e+01 -5.6235394404e+01  4.0877563127e+01  1.0885640351e+02  4.8000000000e+00 0. 9.
      -24     2     4     0     0     0  9.5625190535e+00 -2.9218033228e+01  3.5739196150e+02  3.6768736403e+02  8.0745577519e+01  5.679300e-15 9.
       -5     1     4     0     0   102  1.1510598236e+02  3.1570006912e+01  2.9695983716e+02  3.2008473472e+02  4.8000000000e+00 0. 9.
      -15     1     5     0     0     0  2.2060263616e+01  2.5355710610e+01  1.8231933453e+01  3.8276987578e+01  1.7768200000e+00  3.830365e-02 9.
       16     1     5     0     0     0 -6.3102920732e+01  2.8527710110e+01  7.3551008356e+01  1.0102257015e+02  0.0000000000e+00 0. 9.
        3     1     7     0   104     0  2.5954049924e+01 -1.7912824107e+01  3.3923564676e+02  3.4069862930e+02  5.0000000000e-01 0. 9.
       -4     1     7     0     0   104 -1.6391530871e+01 -1.1305209121e+01  1.8156314741e+01  2.6988734733e+01  1.5000000000e+00 0. 9.
#pdf   21   21  1.325339e-01  1.145506e-02  2.097202e+02  5.398502e-01  7.306923e+00
</event>
<event>
    12  9999  1.000000e+00  1.731514e+02  7.874750e-03  1.076182e-01
       21    -1     0     0   101   102  0.0000000000e+00  0.0000000000e+00  1.3891921848e+03  1.3891921848e+03  0.0000000000e+00 0. 9.
       21    -1     0     0   102   103  0.0000000000e+00  0.0000000000e+00 -2.5192453542e+01  2.5192453542e+01  0.0000000000e+00 0. 9.
        6     2     1     2   101     0 -3.0376094789e+01  5.1615980492e+01  4.4404318945e+02  4.7972314784e+02  1.7138561171e+02  1.144911e-13 9.
       -6     2     1     2     0   103  3.0376094789e+01 -5.1615980492e+01  9.1995654176e+02  9.3466149045e+02  1.5389979347e+02  4.256931e-13 9.
       24     2     3     0     0     0 -3.3182674513e-01  7.1571309520e+01  1.4977139329e+02  1.8321041083e+02  7.7537229321e+01  1.509248e-13 9.
        5     1     3     0   101     0 -3.0044268044e+01 -1.9955329028e+01  2.9427179616e+02  2.9651273702e+02  4.8000000000e+00 0. 9.
      -24     2     4     0     0     0  3.1470234503e+01 -7.3106404959e+01  8.9143189470e+02  8.9860970860e+02  8.0707269677e+01  7.843846e-16 9.
       -5     1     4     0     0   103 -1.0941397136e+00  2.1490424467e+01  2.8524647056e+01  3.6051781858e+01  4.8000000000e+00 0. 9.
       -1     1     5     0     0   104  7.1450823318e-01  2.4588539091e+01  1.2986171893e+02  1.3217141037e+02  3.3000000000e-01 0. 9.
        2     1     5     0   104     0 -1.0463349783e+00  4.6982770429e+01  1.9909674365e+01  5.1039000454e+01  3.3000000000e-01 0. 9.
       13     1     7     0     0     0  1.9035321826e+00  1.5325380807e+01  2.4515550975e+02  2.4564145794e+02  1.0566000000e-01  3.319061e+05 9.
      -14     1     7     0     0     0  2.9566702320e+01 -8.8431785766e+01  6.4627638495e+02  6.5296825066e+02  0.0000000000e+00 0. 9.
#pdf   21   21  2.137219e-01  3.875762e-03  1.651426e+02  2.418135e-01  1.588050e+01
</event>
<event>
    12  9999  1.000000e+00  1.784005e+02  7.877436e-03  1.072225e-01
       21    -1     0     0   101   102  0.0000000000e+00  0.0000000000e+00  2.2293393315e+02  2.2293393315e+02  0.0000000000e+00 0. 9.
       21    -1     0     0   102   103  0.0000000000e+00  0.0000000000e+00 -1.5055921774e+02  1.5055921774e+02  0.0000000000e+00 0. 9.
        6     2     1     2   101     0  4.7586986318e+01 -6.0831482066e+00 -6.4858796179e+00  1.7752935115e+02  1.7080128198e+02  1.434296e-13 9.
       -6     2     1     2     0   103 -4.7586986318e+01  6.0831482066e+00  7.8860595031e+01  1.9596379974e+02  1.7286205888e+02  3.142721e-14 9.
       24     2     3     0     0     0  1.4199523920e+01 -4.1111708182e+01 -5.3795141044e+01  1.0968446279e+02  8.5117361032e+01  8.090490e-14 9.
        5     1     3     0   101     0  3.3387462398e+01  3.5028559975e+01  4.7309261427e+01  6.7844888356e+01  4.8000000000e+00 0. 9.
      -24     2     4     0     0     0 -8.5980406169e+01 -3.4361117697e+01  5.6080242621e+01  1.3553385858e+02  8.1554377899e+01  1.993587e-13 9.
       -5     1     4     0     0   103  3.8393419851e+01  4.0444265903e+01  2.2780352409e+01  6.0429941157e+01  4.8000000000e+00 0. 9.
      -13     1     5     0     0     0  4.2513228400e+01 -1.5960451953e+01 -5.5578352556e+01  7.1770990326e+01  1.0566000000e-01  1.006571e+06 9.
       14     1     5     0     0     0 -2.8313704480e+01 -2.5151256229e+01  1.7832115118e+00  3.7913472467e+01  0.0000000000e+00 0. 9.
       15     1     7     0     0     0 -6.5317421651e+01 -3.4031810428e+00 -3.2324503619e+00  6.5509946093e+01  1.7768200000e+00  4.131471e-02 9.
      -16     1     7     0     0     0 -2.0662984518e+01 -3.0957936654e+01  5.9312692983e+01  7.0023912487e+01  0.0000000000e+00 0. 9.
#pdf   21   21  3.429753e-02  2.316296e-02  1.774108e+02  2.819366e+00  4.064128e+00
</event>
<event>
    12  9999  1.000000e+00  1.941880e+02  7.885073e-03  1.061149e-01
       21    -1     0     0   101   102  0.0000000000e+00  0.0000000000e+00  1.1063610545e+03  1.1063610545e+03  0.0000000000e+00 0. 9.
       21    -1     0     0   103   101  0.0000000000e+00  0.0000000000e+00 -1.0113810468e+02  1.0113810468e+02  0.0000000000e+00 0. 9.
        6     2     1     2   103     0  9.3490067546e+01  1.0337574208e+01  1.1499406333e+01  1.9508664950e+02  1.7052655599e+02  1.225659e-13 9.
       -6     2     1     2     0   102 -9.3490067546e+01 -1.0337574208e+01  9.9372354344e+02  1.0124125096e+03  1.6924937432e+02  7.674892e-14 9.
       24     2     3     0     0     0  7.4931823284e+01 -3.8788028311e+01 -3.8619663193e+01  1.2233574309e+02  7.9719924564e+01  4.157014e-14 9.
        5     1     3     0   103     0  1.8558244261e+01  4.9125602519e+01  5.0119069526e+01  7.2750906407e+01  4.8000000000e+00 0. 9.
      -24     2     4     0     0     0 -9.6004783091e+01 -6.3250809208e+01  7.2732282290e+02  7.4075368291e+02  8.0622247507e+01  8.491983e-15 9.
       -5     1     4     0     0   102  2.5147155456e+00  5.2913235000e+01  2.6640072055e+02  2.7165882673e+02  4.8000000000e+00 0. 9.
       -1     1     5     0     0   104  3.2494853586e+01 -3.0707318948e+01  2.0441481940e+01  4.9161143502e+01  3.3000000000e-01 0. 9.
        2     1     5     0   104     0  4.2436969699e+01 -8.0807093627e+00 -5.9061145134e+01  7.3174599593e+01  3.3000000000e-01 0. 9.
        3     1     7     0   105     0 -4.6515964450e+01 -5.3700370891e+01  2.2607551695e+02  2.3697648437e+02  5.0000000000e-01 0. 9.
       -4     1     7     0     0   105 -4.9488818642e+01 -9.5504383175e+00  5.0124730595e+02  5.0377719853e+02  1.5000000000e+00 0. 9.
#pdf   21   21  1.702094e-01  1.555971e-02  1.936301e+02  3.617217e-01  5.709385e+00
</event>
<event>
    12  9999  1.000000e+00  1.712779e+02  7.873771e-03  1.077631e-01
       21    -1     0     0   101   102  0.0000000000e+00  0.0000000000e+00  3.6961141917e+01  3.6961141917e+01  0.0000000000e+00 0. 9.
       21    -1     0     0   103   101  0.0000000000e+00  0.0000000000e+00 -7.9370239079e+02  7.9370239079e+02  0.0000000000e+00 0. 9.
        6     2     1     2   103     0  9.5840847200e+00 -3.9335902464e+00 -3.7791817895e+02  4.1490832618e+02  1.7093695136e+02  4.291157e-13 9.
       -6     2     1     2     0   102 -9.5840847200e+00  3.9335902464e+00 -3.7882306993e+02  4.1575520653e+02  1.7099165371e+02  1.924959e-13 9.
       24     2     3     0     0     0  7.1839383014e+01  5.7545611322e+00 -2.2644934366e+02  2.5078815525e+02  8.0133523835e+01  1.488765e-13 9.
        5     1     3     0   103     0 -6.2255298294e+01 -9.6881513786e+00 -1.5146883529e+02  1.6412017093e+02  4.8000000000e+00 0. 9.
      -24     2     4     0     0     0  2.8253491692e+01 -6.3165416110e+00 -3.6423564561e+02  3.7365318354e+02  7.8172485860e+01  2.134894e-13 9.
       -5     1     4     0     0   102 -3.7837576412e+01  1.0250131857e+01 -1.4587424316e+01  4.2102022992e+01  4.8000000000e+00 0. 9.
       -3     1     5     0     0   104  5.4535202978e+01 -3.1031035583e+01 -1.6998016034e+02  1.8119193813e+02  5.0000000000e-01 0. 9.
        4     1     5     0   104     0  1.7304180036e+01  3.6785596715e+01 -5.6469183321e+01  6.9596217120e+01  1.5000000000e+00 0. 9.
       11     1     7     0     0     0  3.5955653899e+01 -3.3196799905e+01 -2.9419268618e+02  2.9823509716e+02  5.1100000000e-04 0. 9.
      -12     1     7     0     0     0 -7.7021622069e+00  2.6880258294e+01 -7.0042959426e+01  7.5418086383e+01  0.0000000000e+00 0. 9.
#pdf   21   21  5.686330e-03  1.221081e-01  1.712506e+02  1.223544e+01  6.263215e-01
</event>
<event>
    12  9999  1.000000e+00  2.101962e+02  7.892221e-03  1.051010e-01
       21    -1     0     0   101   102  0.0000000000e+00  0.0000000000e+00  1.1958440297e+03  1.1958440297e+03  0.0000000000e+00 0. 9.
       21    -1     0     0   103   101  0.0000000000e+00  0.0000000000e+00 -3.8522471401e+01  3.8522471401e+01  0.0000000000e+00 0. 9.
        6     2     1     2   103     0 -9.5867613654e+01 -8.2675054311e+01  4.4662906924e+02  4.9242756712e+02  1.6426082740e+02  1.809938e-13 9.
       -6     2     1     2     0   102  9.5867613654e+01  8.2675054311e+01  7.1069248907e+02  7.4193893399e+02  1.7135869922e+02  9.552023e-14 9.
       24     2     3     0     0     0 -1.2094211798e+02 -3.1056762195e+01  3.4632002715e+02  3.7676373192e+02  8.0136322031e+01  2.083839e-14 9.
        5     1     3     0   103     0  2.5074504321e+01 -5.1618292115e+01  1.0030904209e+02  1.1566383520e+02  4.8000000000e+00 0. 9.
      -24     2     4     0     0     0  5.1808358387e+01  4.5692001200e+01  6.4834374267e+02  6.5697205592e+02  8.0565554821e+01  6.283357e-14 9.
       -5     1     4     0     0   102  4.4059255267e+01  3.6983053111e+01  6.2348746400e+01  8.4966878075e+01  4.8000000000e+00 0. 9.
       -1     1     5     0     0   104 -5.4417599901e+01  2.2806721837e+01  1.0141396864e+02  1.1732997774e+02  3.3000000000e-01 0. 9.
        2     1     5     0   104     0 -6.6524518074e+01 -5.3863484033e+01  2.4490605850e+02  2.5943375418e+02  3.3000000000e-01 0. 9.
        3     1     7     0   105     0  4.4291481185e+01  1.4906574683e+01  1.3906273443e+02  1.4670594869e+02  5.0000000000e-01 0. 9.
       -2     1     7     0     0   105  7.5168772025e+00  3.0785426517e+01  5.0928100824e+02  5.1026610723e+02  3.3000000000e-01 0. 9.
#pdf   21   21  1.839760e-01  5.926534e-03  2.073822e+02  3.109415e-01  1.196256e+01
</event>
<event>
    12  9999  1.000000e+00  2.136688e+02  7.893701e-03  1.048937e-01
       21    -1     0     0   101   102  0.0000000000e+00  0.0000000000e+00  9.8821767471e+01  9.8821767471e+01  0.0000000000e+00 0. 9.
       21    -1     0     0   103   101  0.0000000000e+00  0.0000000000e+00 -4.6304284272e+02  4.6304284272e+02  0.0000000000e+00 0. 9.
        6     2     1     2   103     0  5.5143289744e+01 -1.1600100317e+02 -1.9533000971e+02  2.8932918173e+02  1.7047154474e+02  1.362438e-13 9.
       -6     2     1     2     0   102 -5.5143289744e+01  1.1600100317e+02 -1.6889106555e+02  2.7253542847e+02  1.7103903826e+02  7.387959e-14 9.
       24     2     3     0     0     0  7.3757427449e+00 -3.7618369938e+01 -2.0948694213e+01  9.2206227882e+01  8.1200968795e+01  1.703370e-13 9.
        5     1     3     0   103     0  4.7767546999e+01 -7.8382633234e+01 -1.7438131549e+02  1.9712295384e+02  4.8000000000e+00 0. 9.
      -24     2     4     0     0     0 -3.0615765380e+01  1.1118273871e+02 -4.8512992680e+01  1.4949585942e+02  8.1832603828e+01  4.437516e-15 9.
       -5     1     4     0     0   102 -2.4527524363e+01  4.8182644613e+00 -1.2037807287e+02  1.2303956905e+02  4.8000000000e+00 0. 9.
      -13     1     5     0     0     0  3.8898930153e+01 -2.3542900249e+00  3.1946487099e+00  3.9100976880e+01  1.0566000000e-01  1.023138e+06 9.
       14     1     5     0     0     0 -3.1523187408e+01 -3.5264079913e+01 -2.4143342923e+01  5.3105251002e+01  0.0000000000e+00 0. 9.
        3     1     7     0   104     0 -4.0557051777e+01  4.3582233442e+01 -5.4729915055e+01  8.0869642775e+01  5.0000000000e-01 0. 9.
       -4     1     7     0     0   104  9.9412863963e+00  6.7600505268e+01  6.2169223751e+00  6.8626216649e+01  1.5000000000e+00 0. 9.
#pdf   21   21  1.520335e-02  7.123736e-02  2.134422e+02  5.815091e+00  1.259075e+00
</event>
<event>
    12  9999  1.000000e+00  2.675290e+02  7.914064e-03  1.021313e-01
       21    -1     0     0   101   102  0.0000000000e+00  0.0000000000e+00  2.4033101166e+02  2.4033101166e+02  0.0000000000e+00 0. 9.
       21    -1     0     0   102   103  0.0000000000e+00  0.0000000000e+00 -3.9509229995e+02  3.9509229995e+02  0.0000000000e+00 0. 9.
        6     2     1     2   101     0 -1.4214913879e+02  1.4347715645e+02  8.0694014866e+01  2.7753247474e+02  1.7239686314e+02  6.694384e-14 9.
       -6     2     1     2     0   103  1.4214913879e+02 -1.4347715645e+02 -2.3545530316e+02  3.5789083688e+02  1.7847851202e+02  2.897376e-13 9.
       24     2     3     0     0     0 -1.3712357590e+02  4.6433788414e+01  6.9156524468e+01  1.7955888010e+02  8.0621304707e+01  6.230767e-14 9.
        5     1     3     0   101     0 -5.0255628853e+00  9.7043368031e+01  1.1537490398e+01  9.7973594636e+01  4.8000000000e+00 0. 9.
      -24     2     4     0     0     0  1.4575166088e+02 -1.3302882578e+02 -2.5622130856e+02  3.3388223926e+02  8.2992623749e+01  1.779636e-13 9.
       -5     1     4     0     0   103 -3.6025220894e+00 -1.0448330668e+01  2.0766005400e+01  2.4008597615e+01  4.8000000000e+00 0. 9.
       -1     1     5     0     0   104 -4.1695247112e+01 -1.7347465542e+01 -7.4589627374e-01  4.5167393701e+01  3.3000000000e-01 0. 9.
        2     1     5     0   104     0 -9.5428328791e+01  6.3781253956e+01  6.9902420742e+01  1.3439148640e+02  3.3000000000e-01 0. 9.
       13     1     7     0     0     0  2.8778696681e+01 -7.7492999736e+01 -7.8554661552e+01  1.1403606625e+02  1.0566000000e-01  2.073196e+05 9.
      -14     1     7     0     0     0  1.1697296420e+02 -5.5535826041e+01 -1.7766664701e+02  2.1984617301e+02  0.0000000000e+00 0. 9.
#pdf   21   21  3.697400e-02  6.078343e-02  2.655424e+02  2.567531e+00  1.495401e+00
</event>
<event>
    12  9999  1.000000e+00  2.137116e+02  7.893719e-03  1.048912e-01
       21    -1     0     0   101   102  0.0000000000e+00  0.0000000000e+00  2.1045743229e+02  2.1045743229e+02  0.0000000000e+00 0. 9.
       21    -1     0     0   103   101  0.0000000000e+00  0.0000000000e+00 -1.6092037029e+03  1.6092037029e+03  0.0000000000e+00 0. 9.
        6     2     1     2   103     0  1.2916718197e+02 -1.3175970911e+01 -1.5451877650e+03  1.5597599153e+03  1.6848737952e+02  7.273938e-15 9.
       -6     2     1     2     0   102 -1.2916718197e+02  1.3175970911e+01  1.4644149442e+02  2.5990121988e+02  1.7101393423e+02  3.454425e-13 9.
       24     2     3     0     0     0  1.5490197440e+02 -3.1858747356e+01 -1.1603736112e+03  1.1736041195e+03  7.6616644188e+01  1.370365e-13 9.
        5     1     3     0   103     0 -2.5734792429e+01  1.8682776445e+01 -3.8481415381e+02  3.8615579583e+02  4.8000000000e+00 0. 9.
      -24     2     4     0     0     0 -2.3533150899e+01  1.5663393642e+01  1.2528197364e+02  1.5203323987e+02  8.1359584654e+01  1.378297e-13 9.
       -5     1     4     0     0   102 -1.0563403107e+02 -2.4874227313e+00  2.1159520784e+01  1.0786798001e+02  4.8000000000e+00 0. 9.
      -13     1     5     0     0     0  8.9191328624e+01 -2.9299520245e+01 -4.2243092818e+02  4.3273716646e+02  1.0566000000e-01  2.493682e+05 9.
       14     1     5     0     0     0  6.5710645776e+01 -2.5592271113e+00 -7.3794268305e+02  7.4086695302e+02  0.0000000000e+00 0. 9.
       15     1     7     0     0     0 -2.4381038041e+01 -1.6463869813e+01  8.1596789570e+00  3.0581554492e+01  1.7768200000e+00  3.483547e-03 9.
      -16     1     7     0     0     0  8.4788714244e-01  3.2127263455e+01  1.1712229468e+02  1.2145168538e+02  0.0000000000e+00 0. 9.
#pdf   21   21  3.237807e-02  2.475698e-01  2.127105e+02  2.959419e+00  1.666163e-01
</event>
<event>
    12  9999  1.000000e+00  1.783626e+02  7.877417e-03  1.072253e-01
       21    -1     0     0   101   102  0.0000000000e+00  0.0000000000e+00  6.1248513414e+02  6.1248513414e+02  0.0000000000e+00 0. 9.
       21    -1     0     0   103   101  0.0000000000e+00  0.0000000000e+00 -5.4407866719e+01  5.4407866719e+01  0.0000000000e+00 0. 9.
        6     2     1     2   103     0 -4.1040795215e+01  2.4954484777e+01  2.1000508615e+02  2.7636628521e+02  1.7311589820e+02  5.297812e-15 9.
       -6     2     1     2     0   102  4.1040795215e+01 -2.4954484777e+01  3.4807218126e+02  3.9052671564e+02  1.7044001608e+02  3.254991e-13 9.
       24     2     3     0     0     0 -4.9696680130e+01  3.4505804162e+01  4.2213816956e+01  1.0801218795e+02  7.8893699791e+01  4.025607e-13 9.
        5     1     3     0   103     0  8.6558849147e+00 -9.5513193859e+00  1.6779126920e+02  1.6835409726e+02  4.8000000000e+00 0. 9.
      -24     2     4     0     0     0 -8.7780892267e+00 -6.6742528516e+01  2.6608371319e+02  2.8588197979e+02  7.9977146584e+01  1.102119e-13 9.
       -3     1     4     0     0   102  4.9818884442e+01  4.1788043740e+01  8.1988468068e+01  1.0464473586e+02  5.0000000000e-01 0. 9.
       -1     1     5     0     0   104  6.6314462258e+00 -1.8427342939e+01  1.9039025588e+01  2.7315498204e+01  3.3000000000e-01 0. 9.
        2     1     5     0   104     0 -5.6328126356e+01  5.2933147101e+01  2.3174791368e+01  8.0696689745e+01  3.3000000000e-01 0. 9.
       13     1     7     0     0     0 -2.2482577145e+01 -2.2121713288e+01  2.4796550879e+01  4.0121273327e+01  1.0566000000e-01  2.035308e+06 9.
      -14     1     7     0     0     0  1.3704487918e+01 -4.4620815228e+01  2.4128716232e+02  2.4576070646e+02  0.0000000000e+00 0. 9.
#pdf   21   21  9.422848e-02  8.370441e-03  1.770787e+02  8.971401e-01  9.265905e+00
</event>
<event>
    12  9999  1.000000e+00  2.030522e+02  7.889099e-03  1.055412e-01
       21    -1     0     0   101   102  0.0000000000e+00  0.0000000000e+00  1.7638562221e+02  1.7638562221e+02  0.0000000000e+00 0. 9.
       21    -1     0     0   103   101  0.0000000000e+00  0.0000000000e+00 -5.2981885843e+02  5.2981885843e+02  0.0000000000e+00 0. 9.
        6     2     1     2   103     0  9.3026566718e+01  5.9466512166e+01 -4.4055832697e+02  4.8497494077e+02  1.7005541899e+02  1.391117e-13 9.
       -6     2     1     2     0   102 -9.3026566718e+01 -5.9466512166e+01  8.7125090743e+01  2.2122953987e+02  1.7076744330e+02  2.959537e-13 9.
       24     2     3     0     0     0  5.9049596289e+01  8.2836855246e+01 -2.5607453458e+02  2.9587730168e+02  1.0779801009e+02  2.384704e-13 9.
        5     1     3     0   103     0  3.3976970429e+01 -2.3370343081e+01 -1.8448379239e+02  1.8909763909e+02  4.8000000000e+00 0. 9.
      -24     2     4     0     0     0 -3.8733716002e+01  2.7626660778e+01  1.1359970868e+01  9.3572468773e+01  7.9769824076e+01  2.753812e-13 9.
       -5     1     4     0     0   102 -5.4292850716e+01 -8.7093172944e+01  7.5765119876e+01  1.2765707110e+02  4.8000000000e+00 0. 9.
       -1     1     5     0     0   104  5.8723777075e+01  2.2559715858e+01 -2.1218148386e+02  2.2131089844e+02  3.3000000000e-01 0. 9.
        2     1     5     0   104     0  3.2581921449e-01  6.0277139389e+01 -4.3893050723e+01  7.4566403244e+01  3.3000000000e-01 0. 9.
        1     1     7     0   105     0 -3.2795776277e+01  1.2470004097e+01  4.4487775930e+01  5.6659818663e+01  3.3000000000e-01 0. 9.
       -2     1     7     0     0   105 -5.9379397257e+00  1.5156656680e+01 -3.3127805062e+01  3.6912650110e+01  3.3000000000e-01 0. 9.
#pdf   21   21  2.713625e-02  8.151059e-02  2.027537e+02  3.506531e+00  1.069601e+00
</event>
<event>
    12  9999  1.000000e+00  2.258324e+02  7.898707e-03  1.041994e-01
       21    -1     0     0   101   102  0.0000000000e+00  0.0000000000e+00  1.2780712533e+02  1.2780712533e+02  0.0000000000e+00 0. 9.
       21    -1     0     0   102   103  0.0000000000e+00  0.0000000000e+00 -4.7193388427e+02  4.7193388427e+02  0.0000000000e+00 0. 9.
        6     2     1     2   101     0 -1.2078361777e+02 -4.4679655465e+01 -4.7455921730e+01  2.1921194117e+02  1.7092939101e+02  4.933937e-14 9.
       -6     2     1     2     0   103  1.2078361777e+02  4.4679655465e+01 -2.9667083721e+02  3.8052906844e+02  2.0050893333e+02  2.040905e-13 9.
       24     2     3     0     0     0 -1.4557229390e+02 -6.3965110859e+01 -5.5742090054e+01  1.8637738864e+02  7.9665062829e+01  3.855076e-14 9.
        5     1     3     0   101     0  2.4788676131e+01  1.9285455394e+01  8.2861683235e+00  3.2834552526e+01  4.8000000000e+00 0. 9.
      -24     2     4     0     0     0  6.8948814919e+01  6.8949587594e+01 -2.9750935521e+02  3.2308675386e+02  7.9782512950e+01  5.063589e-14 9.
       -5     1     4     0     0   103  5.1834802849e+01 -2.4269932129e+01  8.3851800218e-01  5.7442314580e+01  4.8000000000e+00 0. 9.
       -3     1     5     0     0   104 -6.4255844809e+01  1.2031221198e+01 -1.0447575466e+01  6.6203970491e+01  5.0000000000e-01 0. 9.
        4     1     5     0   104     0 -8.1316449090e+01 -7.5996332056e+01 -4.5294514588e+01  1.2017341815e+02  1.5000000000e+00 0. 9.
        1     1     7     0   105     0  1.1467088670e+01  6.5910560195e+01 -1.3466078328e+02  1.5036399676e+02  3.3000000000e-01 0. 9.
       -2     1     7     0     0   105  5.7481726249e+01  3.0390273994e+00 -1.6284857193e+02  1.7272275710e+02  3.3000000000e-01 0. 9.
#pdf   21   21  1.966263e-02  7.260521e-02  2.140136e+02  4.675978e+00  1.229875e+00
</event>
<event>
    12  9999  1.000000e+00  1.813405e+02  7.878907e-03  1.070072e-01
       21    -1     0     0   101   102  0.0000000000e+00  0.0000000000e+00  9.2334946123e+01  9.2334946123e+01  0.0000000000e+00 0. 9.
       21    -1     0     0   102   103  0.0000000000e+00  0.0000000000e+00 -3.8484798054e+02  3.8484798054e+02  0.0000000000e+00 0. 9.
        6     2     1     2   101     0 -1.5405345352e+01 -5.8002945349e+01 -2.1189384961e+02  2.7931652252e+02  1.7180526743e+02  1.601262e-13 9.
       -6     2     1     2     0   103  1.5405345352e+01  5.8002945349e+01 -8.0619184808e+01  1.9786640414e+02  1.7044058963e+02  4.005864e-15 9.
       24     2     3     0     0     0  1.2978599321e+01 -2.5258346683e+01 -2.1983884494e+02  2.3499925717e+02  7.8032717560e+01  4.160024e-14 9.
        5     1     3     0   101     0 -2.8383944673e+01 -3.2744598666e+01  7.9449953323e+00  4.4317265347e+01  4.8000000000e+00 0. 9.
      -24     2     4     0     0     0 -1.8234039773e+01  7.9152855785e+01 -7.1801507080e+00  1.1422874114e+02  7.9993724456e+01  6.615875e-14 9.
       -5     1     4     0     0   103  3.3639385125e+01 -2.1149910437e+01 -7.3439034100e+01  8.3637663003e+01  4.8000000000e+00 0. 9.
       -3     1     5     0     0   104 -3.0353024230e+01 -1.8145589095e+01 -1.3374365139e+02  1.3834082105e+02  5.0000000000e-01 0. 9.
        4     1     5     0   104     0  4.3331623551e+01 -7.1127575878e+00 -8.6095193552e+01  9.6658436118e+01  1.5000000000e+00 0. 9.
        3     1     7     0   105     0 -2.3285502594e+01  9.4653072122e+01 -4.0489721536e+00  9.7560560006e+01  5.0000000000e-01 0. 9.
       -4     1     7     0     0   105  5.0514628209e+00 -1.5500216336e+01 -3.1311785545e+00  1.6668181132e+01  1.5000000000e+00 0. 9.
#pdf   21   21  1.420538e-02  5.920738e-02  1.806977e+02  6.152372e+00  1.585736e+00
</event>
<event>
    12  9999  1.000000e+00  2.654930e+02  7.913370e-03  1.022227e-01
       -2    -1     0     0     0   101  0.0000000000e+00  0.0000000000e+00  1.1474707229e+02  1.1474707229e+02  0.0000000000e+00 0. 9.
        2    -1     0     0   102     0  0.0000000000e+00  0.0000000000e+00 -6.2659665718e+02  6.2659665718e+02  0.0000000000e+00 0. 9.
       -6     2     1     2     0   101 -1.4455422330e+02  1.4291953134e+02 -2.0377301526e+02  3.3452971539e+02  1.7048393713e+02  1.753096e-13 9.
        6     2     1     2   102     0  1.4455422330e+02 -1.4291953134e+02 -3.0807656963e+02  4.0681401408e+02  1.7106885567e+02  5.276956e-13 9.
      -24     2     3     0     0     0 -1.6677518879e+02  8.9271366494e+01 -1.7272105311e+02  2.6850577085e+02  8.0495008073e+01  6.896276e-14 9.
       -5     1     3     0     0   101  2.2220965489e+01  5.3648164845e+01 -3.1051962151e+01  6.6023944535e+01  4.8000000000e+00 0. 9.
       24     2     4     0     0     0  1.4768428361e+02 -5.3368932772e+01 -1.9163763635e+02  2.5981002718e+02  7.8213655734e+01  7.263934e-14 9.
        5     1     4     0   102     0 -3.1300603090e+00 -8.9550598567e+01 -1.1643893328e+02  1.4700398690e+02  4.8000000000e+00 0. 9.
        1     1     5     0   103     0 -7.3962824563e+00 -1.5235453862e+00 -4.3451775779e+01  4.4104329754e+01  3.3000000000e-01 0. 9.
       -2     1     5     0     0   103 -1.5937890633e+02  9.0794911880e+01 -1.2926927733e+02  2.2440144110e+02  3.3000000000e-01 0. 9.
       -1     1     7     0     0   104  1.2129846711e+02 -1.5893459279e+01 -1.6916086602e+02  2.0876165276e+02  3.3000000000e-01 0. 9.
        2     1     7     0   104     0  2.6385816502e+01 -3.7475473492e+01 -2.2476770337e+01  5.1048374418e+01  3.3000000000e-01 0. 9.
#pdf   -2    2  1.765340e-02  9.639949e-02  2.653049e+02  3.683923e-01  5.767844e-01
</event>
<event>
    12  9999  1.000000e+00  1.884747e+02  7.882382e-03  1.065023e-01
       21    -1     0     0   101   102  0.0000000000e+00  0.0000000000e+00  1.1765612272e+03  1.1765612272e+03  0.0000000000e+00 0. 9.
       21    -1     0     0   102   103  0.0000000000e+00  0.0000000000e+00 -4.1236153829e+01  4.1236153829e+01  0.0000000000e+00 0. 9.
        6     2     1     2   101     0 -1.4801478426e+01  1.0018099678e+02  8.5827821798e+02  8.7662523003e+02  1.4688423531e+02  2.032309e-13 9.
       -6     2     1     2     0   103  1.4801478426e+01 -1.0018099678e+02  2.7704685536e+02  3.4117215097e+02  1.7142975429e+02  6.509081e-13 9.
       24     2     3     0     0     0  3.0144417934e+01  3.1058616164e+01  3.5573226179e+02  3.6733796808e+02  8.0736714958e+01  4.225964e-14 9.
        5     1     3     0   101     0 -4.4945896360e+01  6.9122380617e+01  5.0254595619e+02  5.0928726195e+02  4.8000000000e+00 0. 9.
      -24     2     4     0     0     0  6.7966042473e+00 -1.3247431668e+02  1.7492158078e+02  2.3365681147e+02  8.0014421919e+01  4.403758e-15 9.
       -5     1     4     0     0   103  8.0048741783e+00  3.2293319895e+01  1.0212527458e+02  1.0751533950e+02  4.8000000000e+00 0. 9.
       -1     1     5     0     0   104  1.0872500776e+01 -2.6582805375e+01  8.0377810038e+01  8.5355480557e+01  3.3000000000e-01 0. 9.
        2     1     5     0   104     0  1.9271917158e+01  5.7641421539e+01  2.7535445175e+02  2.8198248752e+02  3.3000000000e-01 0. 9.
       15     1     7     0     0     0  1.7731889159e+01 -2.9052417465e+01  5.0163313763e+00  3.4449724577e+01  1.7768200000e+00  9.360918e-02 9.
      -16     1     7     0     0     0 -1.0935284912e+01 -1.0342189921e+02  1.6990524941e+02  1.9920708689e+02  0.0000000000e+00 0. 9.
#pdf   21   21  1.810094e-01  6.344024e-03  1.784105e+02  3.282404e-01  1.134051e+01
</event>
<event>
    12  9999  1.000000e+00  1.882723e+02  7.882285e-03  1.065163e-01
       21    -1     0     0   101   102  0.0000000000e+00  0.0000000000e+00  8.5126812645e+02  8.5126812645e+02  0.0000000000e+00 0. 9.
       21    -1     0     0   102   103  0.0000000000e+00  0.0000000000e+00 -4.2916960681e+01  4.2916960681e+01  0.0000000000e+00 0. 9.
        6     2     1     2   101     0 -8.9230977743e+01 -4.8274226185e+01  4.9857962803e+02  5.3669831615e+02  1.7079481481e+02  1.312703e-13 9.
       -6     2     1     2     0   103  8.9230977743e+01  4.8274226185e+01  3.0977153774e+02  3.5748677098e+02  1.4678493633e+02  5.763773e-14 9.
       24     2     3     0     0     0 -2.1027527756e+01  2.8131197464e+01  3.1349792552e+02  3.2511434710e+02  7.8643932961e+01  3.921251e-14 9.
        5     1     3     0   101     0 -6.8203449987e+01 -7.6405423649e+01  1.8508170251e+02  2.1158396904e+02  4.8000000000e+00 0. 9.
      -24     2     4     0     0     0  1.9840016910e+00 -1.0874306106e+01  1.0641595757e+02  1.2838610383e+02  7.0967942315e+01  2.145211e-13 9.
       -5     1     4     0     0   103  8.7246976052e+01  5.9148532291e+01  2.0335558017e+02  2.2910066715e+02  4.8000000000e+00 0. 9.
       -3     1     5     0     0   104  2.5713136755e+01  2.4353837670e+00  1.7125507639e+02  1.7319251625e+02  5.0000000000e-01 0. 9.
        4     1     5     0   104     0 -4.6740664511e+01  2.5695813697e+01  1.4224284913e+02  1.5192183085e+02  1.5000000000e+00 0. 9.
        1     1     7     0   105     0  2.4583081865e+01 -1.9661095401e+01  9.7653390048e+01  1.0260204712e+02  3.3000000000e-01 0. 9.
       -2     1     7     0     0   105 -2.2599080174e+01  8.7867892946e+00  8.7625675214e+00  2.5784056710e+01  3.3000000000e-01 0. 9.
#pdf   21   21  1.309643e-01  6.602609e-03  1.784331e+02  5.611454e-01  1.102055e+01
</event>
<event>
    12  9999  1.000000e+00  1.945819e+02  7.885256e-03  1.060887e-01
       21    -1     0     0   101   102  0.0000000000e+00  0.0000000000e+00  2.6285915039e+02  2.6285915039e+02  0.0000000000e+00 0. 9.
       21    -1     0     0   102   103  0.0000000000e+00  0.0000000000e+00 -1.8788038768e+02  1.8788038768e+02  0.0000000000e+00 0. 9.
        6     2     1     2   101     0 -8.4925461722e+01 -3.2625061719e+01  1.4642310815e+02  2.4389022959e+02  1.7252822606e+02  2.426235e-13 9.
       -6     2     1     2     0   103  8.4925461722e+01  3.2625061719e+01 -7.1444345443e+01  2.0684930848e+02  1.7148064970e+02  2.596371e-13 9.
       24     2     3     0     0     0  1.8156837369e+01 -2.1007349531e+01  3.5326561692e+01  9.1816516355e+01  8.0070763934e+01  1.443610e-13 9.
        5     1     3     0   101     0 -1.0308229909e+02 -1.1617712188e+01  1.1109654646e+02  1.5207371324e+02  4.8000000000e+00 0. 9.
      -24     2     4     0     0     0  7.5309952552e+01  6.1144000217e+01 -1.0227814267e+02  1.6349552063e+02  8.2823843685e+01  8.303788e-15 9.
       -5     1     4     0     0   103  9.6155091704e+00 -2.8518938498e+01  3.0833797223e+01  4.3353787849e+01  4.8000000000e+00 0. 9.
       -3     1     5     0     0   104 -8.5581078996e+00 -4.1528974878e+01  3.9359065090e+01  5.7855708189e+01  5.0000000000e-01 0. 9.
        4     1     5     0   104     0  2.6714945268e+01  2.0521625348e+01 -4.0325033981e+00  3.3960808166e+01  1.5000000000e+00 0. 9.
       13     1     7     0     0     0  3.2811374823e+00  1.6128009438e+01  1.2528007719e+01  2.0684310311e+01  1.0566000000e-01  4.292736e+04 9.
      -14     1     7     0     0     0  7.2028815069e+01  4.5015990779e+01 -1.1480615039e+02  1.4281121032e+02  0.0000000000e+00 0. 9.
#pdf   21   21  4.043987e-02  2.890468e-02  1.941194e+02  2.381787e+00  3.310457e+00
</event>
<event>
    12  9999  1.000000e+00  1.969453e+02  7.886344e-03  1.059330e-01
       21    -1     0     0   101   102  0.0000000000e+00  0.0000000000e+00  3.6705174169e+01  3.6705174169e+01  0.0000000000e+00 0. 9.
       21    -1     0     0   103   101  0.0000000000e+00  0.0000000000e+00 -1.0657769458e+03  1.0657769458e+03  0.0000000000e+00 0. 9.
        6     2     1     2   103     0 -4.7090464095e+01 -8.8033254467e+01 -5.6728665188e+02  6.0075638915e+02  1.7066554428e+02  1.863242e-13 9.
       -6     2     1     2     0   102  4.7090464095e+01  8.8033254467e+01 -4.6178511970e+02  5.0172573077e+02  1.6886635674e+02  3.266679e-13 9.
       24     2     3     0     0     0 -2.1559347712e+00 -8.1278028729e+01 -5.2875656170e+02  5.4098722612e+02  8.0454404927e+01  1.063292e-13 9.
        5     1     3     0   103     0 -4.4934529324e+01 -6.7552257381e+00 -3.8530090176e+01  5.9769163030e+01  4.8000000000e+00 0. 9.
      -24     2     4     0     0     0  8.3756207699e+01  3.6208542725e+01 -2.1483393407e+02  2.4670003483e+02  7.9881957073e+01  6.274318e-14 9.
       -5     1     4     0     0   102 -3.6665743604e+01  5.1824711742e+01 -2.4695118564e+02  2.5502569594e+02  4.8000000000e+00 0. 9.
       -3     1     5     0     0   104 -1.9062281409e+01 -8.3880494248e+01 -3.1475319555e+02  3.2629608026e+02  5.0000000000e-01 0. 9.
        4     1     5     0   104     0  1.6906346638e+01  2.6024655189e+00 -2.1400336615e+02  2.1469114586e+02  1.5000000000e+00 0. 9.
       15     1     7     0     0     0  5.7791367603e+01  1.5822288556e+01 -2.0294473316e+02  2.1161263854e+02  1.7768200000e+00  7.728973e-02 9.
      -16     1     7     0     0     0  2.5964840096e+01  2.0386254169e+01 -1.1889200908e+01  3.5087396291e+01  0.0000000000e+00 0. 9.
#pdf   21   21  5.646950e-03  1.639657e-01  1.961714e+02  1.235840e+01  3.852448e-01
</event>
<event>
    12  9999  1.000000e+00  1.880297e+02  7.882169e-03  1.065331e-01
       21    -1     0     0   101   102  0.0000000000e+00  0.0000000000e+00  3.1451823961e+02  3.1451823961e+02  0.0000000000e+00 0. 9.
       21    -1     0     0   102   103  0.0000000000e+00  0.0000000000e+00 -2.4225975865e+02  2.4225975865e+02  0.0000000000e+00 0. 9.
        6     2     1     2   101     0 -5.6919420986e+01  5.0323208087e+01  2.4001348243e+02  3.0541155617e+02  1.7290893886e+02  7.162537e-14 9.
       -6     2     1     2     0   103  5.6919420986e+01 -5.0323208087e+01 -1.6775500147e+02  2.5136644209e+02  1.7108799471e+02  2.034844e-13 9.
       24     2     3     0     0     0 -1.0068876090e+01  4.2480184649e+01  3.6544909298e+01  9.6416372432e+01  7.7811555208e+01  7.430401e-14 9.
        5     1     3     0   101     0 -4.6850544895e+01  7.8430234382e+00  2.0346857313e+02  2.0899518374e+02  4.8000000000e+00 0. 9.
      -24     2     4     0     0     0 -7.6595880489e+00 -2.2632969103e+01 -1.0150434966e+01  7.8741307406e+01  7.4338695055e+01  1.903562e-13 9.
       -5     1     4     0     0   103  6.4579009035e+01 -2.7690238984e+01 -1.5760456650e+02  1.7262513469e+02  4.8000000000e+00 0. 9.
      -15     1     5     0     0     0 -8.6114023500e-01 -1.1553578217e+01 -1.6433693035e+01  2.0185392941e+01  1.7768200000e+00  4.907380e-02 9.
       16     1     5     0     0     0 -9.2077358553e+00  5.4033762866e+01  5.2978602333e+01  7.6230979491e+01  0.0000000000e+00 0. 9.
       13     1     7     0     0     0  1.6834056522e+01 -1.8240665686e+01  2.5290779358e+01  3.5436450560e+01  1.0566000000e-01  1.019628e+06 9.
      -14     1     7     0     0     0 -2.4493644571e+01 -4.3923034162e+00 -3.5441214325e+01  4.3304856847e+01  0.0000000000e+00 0. 9.
#pdf   21   21  4.838742e-02  3.727073e-02  1.871987e+02  1.977344e+00  2.591218e+00
</event>
<event>
    12  9999  1.000000e+00  2.051784e+02  7.890039e-03  1.054082e-01
       21    -1     0     0   101   102  0.0000000000e+00  0.0000000000e+00  2.2904102646e+03  2.2904102646e+03  0.0000000000e+00 0. 9.
       21    -1     0     0   102   103  0.0000000000e+00  0.0000000000e+00 -2.2415408617e+01  2.2415408617e+01  0.0000000000e+00 0. 9.
        6     2     1     2   101     0 -9.5835637485e+01  5.8934581742e+01  1.6258172524e+03  1.6387452767e+03  1.7189121394e+02  4.428019e-14 9.
       -6     2     1     2     0   103  9.5835637485e+01 -5.8934581742e+01  6.4217760365e+02  6.7408039657e+02  1.7127332561e+02  1.501744e-13 9.
       24     2     3     0     0     0 -1.3096137781e+02  6.5120647201e+01  1.4267930104e+03  1.4364935179e+03  7.9898381011e+01  1.067432e-13 9.
        5     1     3     0   101     0  3.5125740326e+01 -6.1860654591e+00  1.9902424194e+02  2.0225175875e+02  4.8000000000e+00 0. 9.
      -24     2     4     0     0     0  3.4102549213e+01 -9.8545428052e+01  4.1062748953e+02  4.3114318517e+02  7.9970780316e+01  9.260144e-14 9.
       -5     1     4     0     0   103  6.1733088272e+01  3.9610846310e+01  2.3155011412e+02  2.4293721140e+02  4.8000000000e+00 0. 9.
       -3     1     5     0     0   104 -1.9748072741e+01  3.4059698032e+01  1.7448033780e+02  1.7886779387e+02  5.0000000000e-01 0. 9.
        4     1     5     0   104     0 -1.1121330507e+02  3.1060949169e+01  1.2523126726e+03  1.2576257241e+03  1.5000000000e+00 0. 9.
        1     1     7     0   105     0  5.4213612506e+01 -5.5081150922e+01  1.8510892455e+02  2.0059529361e+02  3.3000000000e-01 0. 9.
       -2     1     7     0     0   105 -2.0111063293e+01 -4.3464277130e+01  2.2551856498e+02  2.3054789156e+02  3.3000000000e-01 0. 9.
#pdf   21   21  3.523708e-01  3.448524e-03  2.049202e+02  5.860113e-02  1.736980e+01
</event>
<event>
    12  9999  1.000000e+00  1.948323e+02  7.885372e-03  1.060721e-01
       21    -1     0     0   101   102  0.0000000000e+00  0.0000000000e+00  4.4362923799e+02  4.4362923799e+02  0.0000000000e+00 0. 9.
       21    -1     0     0   102   103  0.0000000000e+00  0.0000000000e+00 -1.2544953898e+02  1.2544953898e+02  0.0000000000e+00 0. 9.
        6     2     1     2   101     0 -9.2688678888e+01 -7.3847455784e+00  3.1985903961e+02  3.7483886762e+02  1.7189719543e+02  2.319489e-13 9.
       -6     2     1     2     0   103  9.2688678888e+01  7.3847455784e+00 -1.6793405972e+00  1.9423990936e+02  1.7053033907e+02  6.598792e-14 9.
       24     2     3     0     0     0  1.7885161922e+01  5.6806019900e-01  1.0636399671e+02  1.3422923619e+02  7.9899851961e+01  1.525310e-14 9.
        5     1     3     0   101     0 -1.1057384081e+02 -7.9528057775e+00  2.1349504290e+02  2.4060963142e+02  4.8000000000e+00 0. 9.
      -24     2     4     0     0     0  3.4043746028e+00 -9.7182672110e+00 -4.4800286078e+01  9.3509298434e+01  8.1430269415e+01  7.842664e-14 9.
       -5     1     4     0     0   103  8.9284304285e+01  1.7103012789e+01  4.3120945481e+01  1.0073061093e+02  4.8000000000e+00 0. 9.
       -1     1     5     0     0   104 -2.7228153467e+01 -6.0136413762e-01  7.3549495170e+01  7.8430677161e+01  3.3000000000e-01 0. 9.
        2     1     5     0   104     0  4.5113315389e+01  1.1694243366e+00  3.2814501537e+01  5.5798559030e+01  3.3000000000e-01 0. 9.
        1     1     7     0   105     0 -2.9461020400e+01  6.0598171952e+00  6.3041099195e+00  3.0733106080e+01  3.3000000000e-01 0. 9.
       -2     1     7     0     0   105  3.2865395003e+01 -1.5778084406e+01 -5.1104395997e+01  6.2776192354e+01  3.3000000000e-01 0. 9.
#pdf   21   21  6.825065e-02  1.929993e-02  1.942326e+02  1.336206e+00  4.760632e+00
</event>
<event>
    12  9999  1.000000e+00  2.342071e+02  7.902002e-03  1.037478e-01
       21    -1     0     0   101   102  0.0000000000e+00  0.0000000000e+00  1.0142368010e+02  1.0142368010e+02  0.0000000000e+00 0. 9.
       21    -1     0     0   103   101  0.0000000000e+00  0.0000000000e+00 -6.7801316337e+02  6.7801316337e+02  0.0000000000e+00 0. 9.
        6     2     1     2   103     0  1.5961941378e+02 -8.3205427960e+00 -4.6320005431e+02  5.1886390122e+02  1.7063958799e+02  8.359690e-15 9.
       -6     2     1     2     0   102 -1.5961941378e+02  8.3205427960e+00 -1.1338942897e+02  2.6057294225e+02  1.7173673731e+02  6.038464e-14 9.
       24     2     3     0     0     0  1.5546346836e+02  3.8087047635e+01 -4.1746169945e+02  4.5339655488e+02  7.5330287899e+01  6.692327e-15 9.
        5     1     3     0   103     0  4.1559454223e+00 -4.6407590431e+01 -4.5738354854e+01  6.5467346340e+01  4.8000000000e+00 0. 9.
      -24     2     4     0     0     0 -1.5596162016e+02  3.0247691358e+01 -1.3904465016e+02  2.2628869408e+02  8.1450650934e+01  9.912938e-14 9.
       -5     1     4     0     0   102 -3.6577936263e+00 -2.1927148562e+01  2.5655221186e+01  3.4284248167e+01  4.8000000000e+00 0. 9.
       -3     1     5     0     0   104  2.8600258861e+01  1.7433639872e+01 -1.8271515754e+02  1.8576055932e+02  5.0000000000e-01 0. 9.
        4     1     5     0   104     0  1.2686320950e+02  2.0653407764e+01 -2.3474654192e+02  2.6763599556e+02  1.5000000000e+00 0. 9.
       11     1     7     0     0     0 -5.4138638205e+00 -1.9136291650e+01 -1.2230298568e+01  2.3347115088e+01  5.1100000000e-04 0. 9.
      -12     1     7     0     0     0 -1.5054775634e+02  4.9383983009e+01 -1.2681435159e+02  2.0294157899e+02  0.0000000000e+00 0. 9.
#pdf   21   21  1.560364e-02  1.043097e-01  2.338065e+02  5.685359e+00  7.584062e-01
</event>
<event>
    12  9999  1.000000e+00  2.192204e+02  7.896019e-03  1.045709e-01
       21    -1     0     0   101   102  0.0000000000e+00  0.0000000000e+00  2.3428876400e+02  2.3428876400e+02  0.0000000000e+00 0. 9.
       21    -1     0     0   103   101  0.0000000000e+00  0.0000000000e+00 -3.5366874744e+02  3.5366874744e+02  0.0000000000e+00 0. 9.
        6     2     1     2   103     0  1.3875594275e+02  2.5116336512e+01 -2.4975355499e+02  3.3053111554e+02  1.6428614702e+02  1.064018e-13 9.
       -6     2     1     2     0   102 -1.3875594275e+02 -2.5116336512e+01  1.3037357154e+02  2.5742639590e+02  1.7142648319e+02  1.192158e-14 9.
       24     2     3     0     0     0  1.6360635780e+02  2.8247597026e+01 -1.8830366813e+02  2.6399934482e+02  8.1684855293e+01  1.133278e-13 9.
        5     1     3     0   103     0 -2.4850415047e+01 -3.1312605146e+00 -6.1449886855e+01  6.6531770718e+01  4.8000000000e+00 0. 9.
      -24     2     4     0     0     0 -5.0600172733e+01 -4.3605731034e+01  1.3079327519e+02  1.6722377039e+02  7.9969189606e+01  5.930790e-14 9.
       -5     1     4     0     0   102 -8.8155770021e+01  1.8489394523e+01 -4.1970365268e-01  9.0202625510e+01  4.8000000000e+00 0. 9.
      -11     1     5     0     0     0 -1.6552167246e+00  1.8425799254e+01 -1.1486152550e+01  2.1775709431e+01  5.1100000000e-04 0. 9.
       12     1     5     0     0     0  1.6526157452e+02  9.8217977726e+00 -1.7681751558e+02  2.4222363539e+02  0.0000000000e+00 0. 9.
        3     1     7     0   104     0 -6.1761054355e+01 -4.7779275940e+01  1.3373125687e+02  1.5485989187e+02  5.0000000000e-01 0. 9.
       -4     1     7     0     0   104  1.1160881623e+01  4.1735449060e+00 -2.9379816780e+00  1.2363878518e+01  1.5000000000e+00 0. 9.
#pdf   21   21  3.604443e-02  5.441058e-02  2.165040e+02  2.660706e+00  1.722485e+00
</event>
<event>
    12  9999  1.000000e+00  2.246272e+02  7.898222e-03  1.042661e-01
       21    -1     0     0   101   102  0.0000000000e+00  0.0000000000e+00  2.4180028611e+02  2.4180028611e+02  0.0000000000e+00 0. 9.
       21    -1     0     0   103   101  0.0000000000e+00  0.0000000000e+00 -2.6647535560e+02  2.6647535560e+02  0.0000000000e+00 0. 9.
        6     2     1     2   103     0  1.0628166519e+02  9.9387512317e+01 -1.3069841296e+02  2.5986869660e+02  1.7110229210e+02  7.626685e-13 9.
       -6     2     1     2     0   102 -1.0628166519e+02 -9.9387512317e+01  1.0602334347e+02  2.4840694512e+02  1.7114727886e+02  1.463798e-13 9.
       24     2     3     0     0     0  9.2551025858e+01  4.3566805784e+00 -4.5712302136e+01  1.3155241365e+02  8.1435556835e+01  3.423669e-14 9.
        5     1     3     0   103     0  1.3730639332e+01  9.5030831738e+01 -8.4986110824e+01  1.2831628295e+02  4.8000000000e+00 0. 9.
      -24     2     4     0     0     0 -4.0567682932e+01  1.6573647867e+01  4.8579875225e+01  1.0318948687e+02  7.9797513882e+01  1.985836e-14 9.
       -5     1     4     0     0   102 -6.5713982257e+01 -1.1596116018e+02  5.7443468243e+01  1.4521745824e+02  4.8000000000e+00 0. 9.
       -3     1     5     0     0   104  1.6845061913e+01  1.9663148828e+01  1.7899273912e+01  3.1480621647e+01  5.0000000000e-01 0. 9.
        4     1     5     0   104     0  7.5705963945e+01 -1.5306468250e+01 -6.3611576048e+01  1.0007179200e+02  1.5000000000e+00 0. 9.
       15     1     7     0     0     0  2.0855131648e+01 -1.1072565632e+01  1.2336664658e+01  2.6699973969e+01  1.7768200000e+00  7.798776e-02 9.
      -16     1     7     0     0     0 -6.1422814580e+01  2.7646213499e+01  3.6243210567e+01  7.6489512902e+01  0.0000000000e+00 0. 9.
#pdf   21   21  3.720004e-02  4.099621e-02  2.246100e+02  2.573132e+00  2.330110e+00
</event>
<event>
    12  9999  1.000000e+00  2.058421e+02  7.890331e-03  1.053670e-01
       21    -1     0     0   101   102  0.0000000000e+00  0.0000000000e+00  1.0587783093e+03  1.0587783093e+03  0.0000000000e+00 0. 9.
       21    -1     0     0   102   103  0.0000000000e+00  0.0000000000e+00 -4.8711571189e+01  4.8711571189e+01  0.0000000000e+00 0. 9.
        6     2     1     2   101     0  2.6584263981e+01 -7.1836897350e+01  6.9400229853e+02  7.1884618179e+02  1.7097771726e+02  1.840196e-13 9.
       -6     2     1     2     0   103 -2.6584263981e+01  7.1836897350e+01  3.1606443960e+02  3.8864369872e+02  2.1279081667e+02  1.406370e-14 9.
       24     2     3     0     0     0  2.3537715175e+01 -6.7918470888e+01  7.0085271407e+02  7.0911973750e+02  8.0556393775e+01  6.593862e-14 9.
        5     1     3     0   101     0  3.0465488057e+00 -3.9184264622e+00 -6.8504155345e+00  9.7264442917e+00  4.8000000000e+00 0. 9.
      -24     2     4     0     0     0  5.4003187885e+01 -2.5057988211e+01  1.3611298358e+02  1.6889720211e+02  8.0344716735e+01  2.132621e-14 9.
       -5     1     4     0     0   103 -8.0587451866e+01  9.6894885561e+01  1.7995145602e+02  2.1974649660e+02  4.8000000000e+00 0. 9.
      -13     1     5     0     0     0 -1.9174557498e+01 -4.9187125973e+01  5.0674635966e+02  5.0948888233e+02  1.0566000000e-01  8.872434e+05 9.
       14     1     5     0     0     0  4.2712272674e+01 -1.8731344915e+01  1.9410635440e+02  1.9963085518e+02  0.0000000000e+00 0. 9.
        1     1     7     0   104     0 -1.4188317634e+01 -1.6841358758e+01  7.0685195875e+01  7.4036785032e+01  3.3000000000e-01 0. 9.
       -2     1     7     0     0   104  6.8191505519e+01 -8.2166294531e+00  6.5427787709e+01  9.4860417082e+01  3.3000000000e-01 0. 9.
#pdf   21   21  1.628890e-01  7.494088e-03  1.873517e+02  3.922823e-01  1.006729e+01
</event>
<event>
    12  9999  1.000000e+00  2.577591e+02  7.910687e-03  1.025782e-01
       21    -1     0     0   101   102  0.0000000000e+00  0.0000000000e+00  3.2827877036e+02  3.2827877036e+02  0.0000000000e+00 0. 9.
       21    -1     0     0   102   103  0.0000000000e+00  0.0000000000e+00 -2.3110927218e+02  2.3110927218e+02  0.0000000000e+00 0. 9.
        6     2     1     2   101     0  1.6762976439e+02 -9.8179915352e+01  1.4720666023e+02  2.9695143414e+02  1.6962110639e+02  5.139351e-14 9.
       -6     2     1     2     0   103 -1.6762976439e+02  9.8179915352e+01 -5.0037162046e+01  2.6243660840e+02  1.6920467533e+02  9.984420e-14 9.
       24     2     3     0     0     0  8.8604793134e+01 -2.1316645935e+01  1.4129782280e+02  1.8644866211e+02  8.0578037407e+01  9.149555e-14 9.
        5     1     3     0   101     0  7.9024971258e+01 -7.6863269418e+01  5.9088374275e+00  1.1050277204e+02  4.8000000000e+00 0. 9.
      -24     2     4     0     0     0 -1.5376701953e+02  1.2651634297e+02 -1.5840153943e+01  2.1566477726e+02  8.1300088188e+01  2.608398e-13 9.
       -5     1     4     0     0   103 -1.3862744865e+01 -2.8336427616e+01 -3.4197008102e+01  4.6771831142e+01  4.8000000000e+00 0. 9.
      -15     1     5     0     0     0  6.3832620566e+01 -5.1897329136e+01  9.6388136423e+01  1.2673502338e+02  1.7768200000e+00  1.418380e-01 9.
       16     1     5     0     0     0  2.4772172569e+01  3.0580683201e+01  4.4909686380e+01  5.9713638723e+01  0.0000000000e+00 0. 9.
       15     1     7     0     0     0 -2.3327484049e+01  4.9250863445e+01 -3.1964308564e+01  6.3203585131e+01  1.7768200000e+00  3.896880e-02 9.
      -16     1     7     0     0     0 -1.3043953548e+02  7.7265479524e+01  1.6124154620e+01  1.5246119212e+02  0.0000000000e+00 0. 9.
#pdf   21   21  5.050443e-02  3.555527e-02  2.576223e+02  1.849329e+00  2.674783e+00
</event>
<event>
    12  9999  1.000000e+00  1.804735e+02  7.878475e-03  1.070702e-01
       21    -1     0     0   101   102  0.0000000000e+00  0.0000000000e+00  1.4213671070e+02  1.4213671070e+02  0.0000000000e+00 0. 9.
       21    -1     0     0   102   103  0.0000000000e+00  0.0000000000e+00 -6.7413783870e+02  6.7413783870e+02  0.0000000000e+00 0. 9.
        6     2     1     2   101     0 -1.4964697956e+00 -5.6899889175e+01  6.5482805496e+01  1.9219222327e+02  1.7149348694e+02  4.867888e-13 9.
       -6     2     1     2     0   103  1.4964697956e+00  5.6899889175e+01 -5.9748393350e+02  6.2408232612e+02  1.7103175780e+02  7.859895e-14 9.
       24     2     3     0     0     0 -3.4730638477e+01  5.4889791964e+00  8.1831121602e+01  1.1947916871e+02  7.9640398988e+01  8.450924e-14 9.
        5     1     3     0   101     0  3.3234168682e+01 -6.2388868372e+01 -1.6348316106e+01  7.2713054565e+01  4.8000000000e+00 0. 9.
      -24     2     4     0     0     0  3.9663198730e+01  9.0070016346e+01 -4.6501471228e+02  4.8220882223e+02  8.1245851754e+01  6.967174e-15 9.
       -5     1     4     0     0   103 -3.8166728935e+01 -3.3170127171e+01 -1.3246922122e+02  1.4187350389e+02  4.8000000000e+00 0. 9.
      -11     1     5     0     0     0 -2.9217694835e+01 -2.9823646073e+01  7.0590108913e+01  8.2012724825e+01  5.1100000000e-04 0. 9.
       12     1     5     0     0     0 -5.5129436426e+00  3.5312625270e+01  1.1241012689e+01  3.7466443884e+01  0.0000000000e+00 0. 9.
        3     1     7     0   104     0  3.7525892673e+01  5.9141047838e+01 -1.4865620335e+02  1.6433129025e+02  5.0000000000e-01 0. 9.
       -4     1     7     0     0   104  2.1373060573e+00  3.0928968508e+01 -3.1635850893e+02  3.1787753198e+02  1.5000000000e+00 0. 9.
#pdf   21   21  2.186719e-02  1.037135e-01  1.802545e+02  4.275358e+00  7.862702e-01
</event>
<event>
    12  9999  1.000000e+00  2.872019e+02  7.920514e-03  1.012897e-01
       21    -1     0     0   101   102  0.0000000000e+00  0.0000000000e+00  1.7430348022e+02  1.7430348022e+02  0.0000000000e+00 0. 9.
       21    -1     0     0   102   103  0.0000000000e+00  0.0000000000e+00 -7.5204823199e+02  7.5204823199e+02  0.0000000000e+00 0. 9.
        6     2     1     2   101     0 -9.9513077214e+01  2.0797335316e+02 -6.6854793035e+00  2.8702285795e+02  1.7082639490e+02  3.352430e-14 9.
       -6     2     1     2     0   103  9.9513077214e+01 -2.0797335316e+02 -5.7105927247e+02  6.3932885425e+02  1.7168844762e+02  3.868691e-13 9.
       24     2     3     0     0     0 -2.9036133834e+01  9.1292697759e+01 -6.1491471312e+01  1.4002587957e+02  8.1538899759e+01  7.486061e-14 9.
        5     1     3     0   101     0 -7.0476943380e+01  1.1668065540e+02  5.4805992008e+01  1.4699697838e+02  4.8000000000e+00 0. 9.
      -24     2     4     0     0     0  2.5161470570e+00 -1.6081742862e+02 -3.4109776785e+02  3.8528669380e+02  7.8927643104e+01  1.176524e-13 9.
       -5     1     4     0     0   103  9.6996930157e+01 -4.7155924534e+01 -2.2996150462e+02  2.5404216045e+02  4.8000000000e+00 0. 9.
       -1     1     5     0     0   104 -1.6880483831e+01  1.0424389229e+01  1.7404739879e+01  2.6394175407e+01  3.3000000000e-01 0. 9.
        2     1     5     0   104     0 -1.2155650003e+01  8.0868308530e+01 -7.8896211190e+01  1.1363170417e+02  3.3000000000e-01 0. 9.
        3     1     7     0   105     0  2.3762718289e+01 -2.8142548390e+01 -3.4218538355e+01  5.0277511648e+01  5.0000000000e-01 0. 9.
       -4     1     7     0     0   105 -2.1246571232e+01 -1.3267488023e+02 -3.0687922950e+02  3.3500918216e+02  1.5000000000e+00 0. 9.
#pdf   21   21  2.681592e-02  1.156997e-01  2.869450e+02  3.502922e+00  6.383814e-01
</event>
<event>
    12  9999  1.000000e+00  1.721211e+02  7.874213e-03  1.076976e-01
       21    -1     0     0   101   102  0.0000000000e+00  0.0000000000e+00  4.4421009880e+01  4.4421009880e+01  0.0000000000e+00 0. 9.
       21    -1     0     0   102   103  0.0000000000e+00  0.0000000000e+00 -7.0671826400e+02  7.0671826400e+02  0.0000000000e+00 0. 9.
        6     2     1     2   101     0 -3.2307300758e+00  1.7697406726e+01 -2.4014044676e+02  2.9484010473e+02  1.7011648174e+02  7.571747e-14 9.
       -6     2     1     2     0   103  3.2307300758e+00 -1.7697406726e+01 -4.2215680736e+02  4.5629916916e+02  1.7224670085e+02  7.113501e-14 9.
       24     2     3     0     0     0  6.6811535144e+00 -4.0030423471e+01 -9.0650819902e+01  1.3421340596e+02  9.0269566167e+01  6.762788e-13 9.
        5     1     3     0   101     0 -9.9118835902e+00  5.7727830197e+01 -1.4948962686e+02  1.6062669876e+02  4.8000000000e+00 0. 9.
      -24     2     4     0     0     0 -6.3499169379e+01 -8.5660668394e+00 -2.8630558598e+02  3.0459269204e+02  8.1855344771e+01  4.096194e-14 9.
       -5     1     4     0     0   103  6.6729899455e+01 -9.1313398863e+00 -1.3585122137e+02  1.5170647711e+02  4.8000000000e+00 0. 9.
       -3     1     5     0     0   104 -1.8578441453e+01 -1.9669229986e+01  9.6928186523e+00  2.8744352985e+01  5.0000000000e-01 0. 9.
        4     1     5     0   104     0  2.5259594968e+01 -2.0361193485e+01 -1.0034363855e+02  1.0546905298e+02  1.5000000000e+00 0. 9.
        3     1     7     0   105     0 -4.9818020872e+01 -3.2455132895e+01 -2.5919013088e+02  2.6592281737e+02  5.0000000000e-01 0. 9.
       -4     1     7     0     0   105 -1.3681148507e+01  2.3889066056e+01 -2.7115455108e+01  3.8669874673e+01  1.5000000000e+00 0. 9.
#pdf   21   21  6.834002e-03  1.087259e-01  1.710651e+02  1.073578e+01  7.402919e-01
</event>
<event>
    12  9999  1.000000e+00  2.103872e+02  7.892303e-03  1.050895e-01
       -1    -1     0     0     0   101  0.0000000000e+00  0.0000000000e+00  4.0540816517e+02  4.0540816517e+02  0.0000000000e+00 0. 9.
        1    -1     0     0   102     0  0.0000000000e+00  0.0000000000e+00 -1.2343447853e+02  1.2343447853e+02  0.0000000000e+00 0. 9.
       -6     2     1     2     0   101 -3.6396497657e+01  1.1679033875e+02  2.3076334474e+02  3.1218396239e+02  1.7100414272e+02  2.486162e-14 9.
        6     2     1     2   102     0  3.6396497657e+01 -1.1679033875e+02  5.1210341896e+01  2.1665868131e+02  1.7132949776e+02  6.896195e-14 9.
      -24     2     3     0     0     0 -6.3823486232e+01  8.5714825477e+01  7.9876401656e+01  1.5563417216e+02  8.0132935179e+01  1.190694e-13 9.
       -5     1     3     0     0   101  2.7426988575e+01  3.1075513275e+01  1.5088694308e+02  1.5654979023e+02  4.8000000000e+00 0. 9.
       24     2     4     0     0     0  5.5674533824e+01 -1.0676621827e+02 -1.5687254456e+01  1.4615723404e+02  8.1345977334e+01  4.526382e-14 9.
        5     1     4     0   102     0 -1.9278036167e+01 -1.0024120481e+01  6.6897596352e+01  7.0501447273e+01  4.8000000000e+00 0. 9.
        3     1     5     0   103     0  9.8550844020e+00  5.1116673577e+01  2.8213910827e+01  5.9214117998e+01  5.0000000000e-01 0. 9.
       -4     1     5     0     0   103 -7.3678570634e+01  3.4598151900e+01  5.1662490830e+01  9.6420054160e+01  1.5000000000e+00 0. 9.
      -11     1     7     0     0     0  2.5298244222e+01  4.5957038082e+00  1.0533237915e+01  2.7786161222e+01  5.1100000000e-04 0. 9.
       12     1     7     0     0     0  3.0376289603e+01 -1.1136192208e+02 -2.6220492372e+01  1.1837107281e+02  0.0000000000e+00 0. 9.
#pdf   -1    1  6.237049e-02  1.898992e-02  2.102549e+02  1.559399e-01  5.590571e-01
</event>
<event>
    12  9999  1.000000e+00  1.787570e+02  7.877615e-03  1.071962e-01
       21    -1     0     0   101   102  0.0000000000e+00  0.0000000000e+00  1.4787862059e+02  1.4787862059e+02  0.0000000000e+00 0. 9.
       21    -1     0     0   103   101  0.0000000000e+00  0.0000000000e+00 -3.4492158219e+02  3.4492158219e+02  0.0000000000e+00 0. 9.
        6     2     1     2   103     0 -5.3147567634e+01  4.5763235105e+00 -2.4917801281e+02  3.0677403413e+02  1.7080696493e+02  7.427136e-14 9.
       -6     2     1     2     0   102  5.3147567634e+01 -4.5763235105e+00  5.2135051204e+01  1.8602616865e+02  1.7041732652e+02  6.791138e-15 9.
       24     2     3     0     0     0 -1.3195352678e+01 -7.0028316984e+00 -2.5151194007e+02  2.6483665782e+02  8.1590700100e+01  9.944319e-14 9.
        5     1     3     0   103     0 -3.9952214956e+01  1.1579155209e+01  2.3339272675e+00  4.1937376309e+01  4.8000000000e+00 0. 9.
      -24     2     4     0     0     0  6.5615574822e+01 -4.7366616510e+01  7.3332886231e+01  1.3643939029e+02  8.1786276361e+01  2.018643e-13 9.
       -5     1     4     0     0   102 -1.2468007189e+01  4.2790293000e+01 -2.1197835027e+01  4.9586778360e+01  4.8000000000e+00 0. 9.
       -3     1     5     0     0   104  1.7642387383e+00 -3.2835661887e+01 -4.2700631439e+01  5.3897005067e+01  5.0000000000e-01 0. 9.
        4     1     5     0   104     0 -1.4959591416e+01  2.5832830189e+01 -2.0881130863e+02  2.1093965276e+02  1.5000000000e+00 0. 9.
        1     1     7     0   105     0  1.2501764663e+01 -5.0897876288e+01  9.4027769633e+00  5.3248559088e+01  3.3000000000e-01 0. 9.
       -2     1     7     0     0   105  5.3113810159e+01  3.5312597775e+00  6.3930109268e+01  8.3190831203e+01  3.3000000000e-01 0. 9.
#pdf   21   21  2.275056e-02  5.306486e-02  1.785712e+02  4.129009e+00  1.793857e+00
</event>
<event>
    12  9999  1.000000e+00  1.727162e+02  7.874523e-03  1.076517e-01
       21    -1     0     0   101   102  0.0000000000e+00  0.0000000000e+00  4.8724224931e+02  4.8724224931e+02  0.0000000000e+00 0. 9.
       21    -1     0     0   102   103  0.0000000000e+00  0.0000000000e+00 -8.4517323986e+01  8.4517323986e+01  0.0000000000e+00 0. 9.
        6     2     1     2   101     0 -2.5215487077e+00  1.5637660311e+01  3.5159073911e+02  3.9179997678e+02  1.7216352502e+02  5.897924e-13 9.
       -6     2     1     2     0   103  2.5215487077e+00 -1.5637660311e+01  5.1134186211e+01  1.7995959652e+02  1.7181343589e+02  2.434880e-13 9.
       24     2     3     0     0     0 -5.8687387797e+00 -2.6532049888e+01  3.3576459299e+02  3.4637977158e+02  8.0639273846e+01  3.271698e-14 9.
        5     1     3     0   101     0  3.3471900720e+00  4.2169710200e+01  1.5826146126e+01  4.5420205206e+01  4.8000000000e+00 0. 9.
      -24     2     4     0     0     0 -2.3481232928e+00  3.7246297930e+01  7.8889966977e+01  1.1984428972e+02  8.2135415609e+01  2.282057e-13 9.
       -5     1     4     0     0   103  4.8696720005e+00 -5.2883958242e+01 -2.7755780766e+01  6.0115306791e+01  4.8000000000e+00 0. 9.
       -1     1     5     0     0   104 -2.6878685440e+00  3.3860378708e+00 -3.6296079334e+00  5.6544534239e+00  3.3000000000e-01 0. 9.
        2     1     5     0   104     0 -3.1808702357e+00 -2.9918087759e+01  3.3939420092e+02  3.4072531815e+02  3.3000000000e-01 0. 9.
        3     1     7     0   105     0  7.0290587633e+00  4.2127033114e+01  2.5791699040e+00  4.2790147271e+01  5.0000000000e-01 0. 9.
       -4     1     7     0     0   105 -9.3771820561e+00 -4.8807351837e+00  7.6310797073e+01  7.7054142453e+01  1.5000000000e+00 0. 9.
#pdf   21   21  7.496035e-02  1.300267e-02  1.725420e+02  1.204261e+00  6.604299e+00
</event>
<event>
    12  9999  1.000000e+00  2.728401e+02  7.915850e-03  1.018967e-01
       21    -1     0     0   101   102  0.0000000000e+00  0.0000000000e+00  5.4976342859e+02  5.4976342859e+02  0.0000000000e+00 0. 9.
       21    -1     0     0   103   101  0.0000000000e+00  0.0000000000e+00 -1.4078073654e+02  1.4078073654e+02  0.0000000000e+00 0. 9.
        6     2     1     2   103     0  1.4854520464e+02  1.5206083694e+02  1.3706431894e+02  3.0537153014e+02  1.7110513711e+02  3.877196e-13 9.
       -6     2     1     2     0   102 -1.4854520464e+02 -1.5206083694e+02  2.7191837312e+02  3.8517263499e+02  1.7096836302e+02  3.814669e-14 9.
       24     2     3     0     0     0  4.1595253505e+01  1.9146791752e+01  8.7951500106e+01  1.2777776778e+02  8.0591108818e+01  9.994692e-14 9.
        5     1     3     0   103     0  1.0694995114e+02  1.3291404518e+02  4.9112818835e+01  1.7759376236e+02  4.8000000000e+00 0. 9.
      -24     2     4     0     0     0 -1.1605796490e+02 -1.1252038563e+02  2.8001810740e+02  3.3313886008e+02  8.0256284637e+01  1.725296e-14 9.
       -5     1     4     0     0   102 -3.2487239744e+01 -3.9540451304e+01 -8.0997342879e+00  5.2033774907e+01  4.8000000000e+00 0. 9.
       -1     1     5     0     0   104  3.9966576713e+01 -1.8378659780e+01  1.6367526737e+01  4.6937268998e+01  3.3000000000e-01 0. 9.
        2     1     5     0   104     0  1.6286767916e+00  3.7525451532e+01  7.1583973368e+01  8.0840498786e+01  3.3000000000e-01 0. 9.
        1     1     7     0   105     0 -1.1048691229e+01 -1.0928344206e+01  1.0041400007e+02  1.0160995323e+02  3.3000000000e-01 0. 9.
       -2     1     7     0     0   105 -1.0500927367e+02 -1.0159204143e+02  1.7960410733e+02  2.3152890685e+02  3.3000000000e-01 0. 9.
#pdf   21   21  8.457899e-02  2.165857e-02  2.727973e+02  9.920558e-01  4.269114e+00
</event>
<event>
    12  9999  1.000000e+00  2.140739e+02  7.893872e-03  1.048698e-01
       -2    -1     0     0     0   101  0.0000000000e+00  0.0000000000e+00  7.0618105509e+01  7.0618105509e+01  0.0000000000e+00 0. 9.
        2    -1     0     0   102     0  0.0000000000e+00  0.0000000000e+00 -6.4900486467e+02  6.4900486467e+02  0.0000000000e+00 0. 9.
       -6     2     1     2     0   101  7.7454021865e+01 -1.0510343974e+02 -2.8495806730e+02  3.5571164020e+02  1.6817791860e+02  1.335036e-15 9.
        6     2     1     2   102     0 -7.7454021865e+01  1.0510343974e+02 -2.9342869186e+02  3.6391132998e+02  1.7112919193e+02  2.508377e-13 9.
      -24     2     3     0     0     0  1.0117511163e+02 -8.9084397463e+01 -1.4862533860e+02  2.1632386194e+02  8.0833711303e+01  7.873024e-14 9.
       -5     1     3     0     0   101 -2.3721089768e+01 -1.6019042280e+01 -1.3633272869e+02  1.3938777826e+02  4.8000000000e+00 0. 9.
       24     2     4     0     0     0 -1.8096352015e+01  7.3464273178e+01 -7.2181585413e+01  1.3261564921e+02  8.1561337365e+01  2.941399e-14 9.
        5     1     4     0   102     0 -5.9357669850e+01  3.1639166565e+01 -2.2124710645e+02  2.3129568077e+02  4.8000000000e+00 0. 9.
        3     1     5     0   103     0  2.5814698683e+01  1.1906573935e+01 -4.4718871701e+01  5.2992383011e+01  5.0000000000e-01 0. 9.
       -4     1     5     0     0   103  7.5360412950e+01 -1.0099097140e+02 -1.0390646690e+02  1.6333147893e+02  1.5000000000e+00 0. 9.
       -3     1     7     0     0   104  2.7913052444e+01  1.4954063237e+01 -4.4769349693e+00  3.1985238013e+01  5.0000000000e-01 0. 9.
        4     1     7     0   104     0 -4.6009404458e+01  5.8510209941e+01 -6.7704650444e+01  1.0063041120e+02  1.5000000000e+00 0. 9.
#pdf   -2    2  1.086432e-02  9.984690e-02  2.129077e+02  4.985941e-01  5.763918e-01
</event>
<event>
    12  9999  1.000000e+00  1.794532e+02  7.877965e-03  1.071449e-01
       21    -1     0     0   101   102  0.0000000000e+00  0.0000000000e+00  2.1994146646e+03  2.1994146646e+03  0.0000000000e+00 0. 9.
       21    -1     0     0   102   103  0.0000000000e+00  0.0000000000e+00 -1.4643960800e+01  1.4643960800e+01  0.0000000000e+00 0. 9.
        6     2     1     2   101     0 -5.7322996382e+01  4.6122522471e+00  1.0984478531e+03  1.1128551733e+03  1.6897263692e+02  1.595856e-13 9.
       -6     2     1     2     0   103  5.7322996382e+01 -4.6122522471e+00  1.0863228507e+03  1.1012034520e+03  1.7101025737e+02  3.565633e-13 9.
       24     2     3     0     0     0 -1.0017558069e+02  2.3414245818e+01  8.5996185614e+02  8.6977397354e+02  7.9931202604e+01  1.817487e-13 9.
        5     1     3     0   101     0  4.2852584310e+01 -1.8801993571e+01  2.3848599695e+02  2.4308119977e+02  4.8000000000e+00 0. 9.
      -24     2     4     0     0     0 -9.2673470101e+00 -2.5802523927e+01  8.5754111158e+02  8.6193910955e+02  8.2526459804e+01  1.690722e-14 9.
       -5     1     4     0     0   103  6.6590343392e+01  2.1190271680e+01  2.2878173909e+02  2.3926434249e+02  4.8000000000e+00 0. 9.
       -1     1     5     0     0   104  8.1056072088e+00  2.0191280226e+01  1.6214399121e+02  1.6359758999e+02  3.3000000000e-01 0. 9.
        2     1     5     0   104     0 -1.0828118790e+02  3.2229655920e+00  6.9781786494e+02  7.0617638355e+02  3.3000000000e-01 0. 9.
        3     1     7     0   105     0 -3.4209764760e+01  7.7979461676e+00  5.9918748764e+02  6.0021413789e+02  5.0000000000e-01 0. 9.
       -4     1     7     0     0   105  2.4942417750e+01 -3.3600470095e+01  2.5835362394e+02  2.6172497167e+02  1.5000000000e+00 0. 9.
#pdf   21   21  3.383715e-01  2.252917e-03  1.784908e+02  7.073562e-02  2.271049e+01
</event>
<event>
    12  9999  1.000000e+00  1.816736e+02  7.879072e-03  1.069831e-01
       21    -1     0     0   101   102  0.0000000000e+00  0.0000000000e+00  2.3108729267e+03  2.3108729267e+03  0.0000000000e+00 0. 9.
       21    -1     0     0   102   103  0.0000000000e+00  0.0000000000e+00 -2.6168518247e+01  2.6168518247e+01  0.0000000000e+00 0. 9.
        6     2     1     2   101     0  4.6228857372e+01  4.0707774461e+01  3.5725307291e+02  4.0111286225e+02  1.7166111968e+02  1.523748e-13 9.
       -6     2     1     2     0   103 -4.6228857372e+01 -4.0707774461e+01  1.9274513356e+03  1.9359285827e+03  1.7016637809e+02  2.195993e-13 9.
       24     2     3     0     0     0  5.7052482097e+01  2.8561517029e+01  3.6755219812e+02  3.8126860863e+02  7.8742540056e+01  2.598695e-15 9.
        5     1     3     0   101     0 -1.0823624725e+01  1.2146257433e+01 -1.0299125212e+01  1.9844253626e+01  4.8000000000e+00 0. 9.
      -24     2     4     0     0     0 -3.5728321426e+01 -9.2139083332e+01  1.4324060159e+03  1.4380848830e+03  8.0839425983e+01  3.147791e-15 9.
       -5     1     4     0     0   103 -1.0500535946e+01  5.1431308870e+01  4.9504531967e+02  4.9784369968e+02  4.8000000000e+00 0. 9.
      -11     1     5     0     0     0  7.0047898598e+00 -2.5481092522e+01  1.2574394445e+02  1.2849082739e+02  5.1100000000e-04 0. 9.
       12     1     5     0     0     0  5.0047692237e+01  5.4042609551e+01  2.4180825366e+02  2.5277778123e+02  0.0000000000e+00 0. 9.
        1     1     7     0   104     0 -4.9964715550e+01 -9.8629414588e+01  1.1699417051e+03  1.1751544309e+03  3.3000000000e-01 0. 9.
       -2     1     7     0     0   104  1.4236394124e+01  6.4903312566e+00  2.6246431078e+02  2.6293045211e+02  3.3000000000e-01 0. 9.
#pdf   21   21  3.555189e-01  4.025926e-03  1.809719e+02  5.872169e-02  1.555777e+01
</event>
<event>
    12  9999  1.000000e+00  2.374124e+02  7.903233e-03  1.035802e-01
       21    -1     0     0   101   102  0.0000000000e+00  0.0000000000e+00  9.5546444846e+02  9.5546444846e+02  0.0000000000e+00 0. 9.
       21    -1     0     0   102   103  0.0000000000e+00  0.0000000000e+00 -1.0295440225e+02  1.0295440225e+02  0.0000000000e+00 0. 9.
        6     2     1     2   101     0  1.6599108785e+02  5.1309538056e+00  7.7257180435e+02  8.0837095955e+02  1.7034390931e+02  1.116996e-13 9.
       -6     2     1     2     0   103 -1.6599108785e+02 -5.1309538056e+00  7.9938241865e+01  2.5004789115e+02  1.6898064216e+02  2.852206e-13 9.
       24     2     3     0     0     0  1.1802894830e+02 -3.3821451748e+01  6.8506018407e+02  7.0113766056e+02  8.4922553107e+01  1.464499e-13 9.
        5     1     3     0   101     0  4.7962139548e+01  3.8952405553e+01  8.7511620282e+01  1.0723329899e+02  4.8000000000e+00 0. 9.
      -24     2     4     0     0     0 -1.6384609267e+02  4.0458687271e+01  4.4472921734e+01  1.9204922471e+02  8.0141228359e+01  4.344406e-16 9.
       -5     1     4     0     0   103 -2.1449951796e+00 -4.5589641076e+01  3.5465320130e+01  5.7998666448e+01  4.8000000000e+00 0. 9.
      -15     1     5     0     0     0  1.1995499064e+02 -2.7499884896e+01  4.6606289889e+02  4.8204068942e+02  1.7768200000e+00  2.405670e-02 9.
       16     1     5     0     0     0 -1.9260423358e+00 -6.3215668518e+00  2.1899728518e+02  2.1909697114e+02  0.0000000000e+00 0. 9.
        3     1     7     0   104     0 -1.9559491503e+01  2.2038979535e+01  3.5737575046e+01  4.6321858739e+01  5.0000000000e-01 0. 9.
       -4     1     7     0     0   104 -1.4428660117e+02  1.8419707735e+01  8.7353466881e+00  1.4572736597e+02  1.5000000000e+00 0. 9.
#pdf   21   21  1.469945e-01  1.583914e-02  2.369258e+02  4.504196e-01  5.613749e+00
</event>
<event>
    12  9999  1.000000e+00  2.486705e+02  7.907431e-03  1.030132e-01
       21    -1     0     0   101   102  0.0000000000e+00  0.0000000000e+00  8.0774187407e+02  8.0774187407e+02  0.0000000000e+00 0. 9.
       21    -1     0     0   103   101  0.0000000000e+00  0.0000000000e+00 -2.6878357820e+02  2.6878357820e+02  0.0000000000e+00 0. 9.
        6     2     1     2   103     0  1.7831879071e+02  2.5255527758e+01 -1.8584148840e+02  3.1012584363e+02  1.7089630561e+02  1.059974e-13 9.
       -6     2     1     2     0   102 -1.7831879071e+02 -2.5255527758e+01  7.2479978426e+02  7.6639960864e+02  1.7204127429e+02  1.612233e-13 9.
       24     2     3     0     0     0  6.7627123644e+01  2.9983243565e+01 -2.0664782449e+01  1.1117514460e+02  8.0376966827e+01  9.646520e-14 9.
        5     1     3     0   103     0  1.1069166707e+02 -4.7277158073e+00 -1.6517670595e+02  1.9895069903e+02  4.8000000000e+00 0. 9.
      -24     2     4     0     0     0 -1.2974658869e+02  1.9722776833e+01  6.3862547655e+02  6.5762756259e+02  8.6071752475e+01  2.747100e-14 9.
       -5     1     4     0     0   102 -4.8572202027e+01 -4.4978304591e+01  8.6174307708e+01  1.0877204605e+02  4.8000000000e+00 0. 9.
      -13     1     5     0     0     0  5.5748362247e+01  5.3533625824e+01  6.0303029533e-01  7.7292326894e+01  1.0566000000e-01  4.375623e+05 9.
       14     1     5     0     0     0  1.1878761398e+01 -2.3550382259e+01 -2.1267812745e+01  3.3882817708e+01  0.0000000000e+00 0. 9.
        1     1     7     0   104     0 -1.1156212749e+02  1.0600521887e+01  3.3351163467e+02  3.5183603954e+02  3.3000000000e-01 0. 9.
       -2     1     7     0     0   104 -1.8184461193e+01  9.1222549462e+00  3.0511384188e+02  3.0579152305e+02  3.3000000000e-01 0. 9.
#pdf   21   21  1.242680e-01  4.135132e-02  2.482760e+02  5.833776e-01  2.296634e+00
</event>
<event>
    12  9999  1.000000e+00  1.796008e+02  7.878039e-03  1.071341e-01
       21    -1     0     0   101   102  0.0000000000e+00  0.0000000000e+00  6.8907054303e+01  6.8907054303e+01  0.0000000000e+00 0. 9.
       21    -1     0     0   103   101  0.0000000000e+00  0.0000000000e+00 -6.9796726535e+02  6.9796726535e+02  0.0000000000e+00 0. 9.
        6     2     1     2   103     0  3.0829282446e+01 -5.0625018854e+01 -5.3448557192e+02  5.6383112242e+02  1.6946200408e+02  5.919679e-13 9.
       -6     2     1     2     0   102 -3.0829282446e+01  5.0625018854e+01 -9.4574639124e+01  2.0304319723e+02  1.6961379775e+02  1.678238e-13 9.
       24     2     3     0     0     0 -1.8297601336e+01 -5.6909940250e+01 -1.7978874444e+02  2.0566100868e+02  7.9993214412e+01  4.190366e-15 9.
        5     1     3     0   103     0  4.9126883782e+01  6.2849213953e+00 -3.5469682748e+02  3.5817011374e+02  4.8000000000e+00 0. 9.
      -24     2     4     0     0     0 -3.3751209240e+01  7.7685422981e+01 -1.2534704478e+01  1.1647302913e+02  7.8959981196e+01  1.618987e-13 9.
       -5     1     4     0     0   102  2.9219267937e+00 -2.7060404127e+01 -8.2039934646e+01  8.6570168097e+01  4.8000000000e+00 0. 9.
       -1     1     5     0     0   104  1.4481543176e+01 -6.3672246622e+01 -1.0385753960e+02  1.2267993933e+02  3.3000000000e-01 0. 9.
        2     1     5     0   104     0 -3.2779144512e+01  6.7623063727e+00 -7.5931204842e+01  8.2981069354e+01  3.3000000000e-01 0. 9.
        3     1     7     0   105     0 -6.8827882095e+00  1.8001675601e+01  3.1962345813e+01  3.7326594378e+01  5.0000000000e-01 0. 9.
       -2     1     7     0     0   105 -2.6868421030e+01  5.9683747380e+01 -4.4497050291e+01  7.9146434756e+01  3.3000000000e-01 0. 9.
#pdf   21   21  1.060109e-02  1.073796e-01  1.795291e+02  7.751697e+00  7.494641e-01
</event>
<event>
    12  9999  1.000000e+00  2.158287e+02  7.894610e-03  1.047669e-01
       21    -1     0     0   101   102  0.0000000000e+00  0.0000000000e+00  3.7507912317e+02  3.7507912317e+02  0.0000000000e+00 0. 9.
       21    -1     0     0   103   101  0.0000000000e+00  0.0000000000e+00 -1.4512168831e+02  1.4512168831e+02  0.0000000000e+00 0. 9.
        6     2     1     2   103     0  2.9602283272e+00 -1.3250403687e+02  1.5857607549e+01  2.1564741718e+02  1.6937019241e+02  6.373504e-14 9.
       -6     2     1     2     0   102 -2.9602283272e+00  1.3250403687e+02  2.1409982732e+02  3.0455339430e+02  1.7131243733e+02  2.649111e-13 9.
       24     2     3     0     0     0 -6.3734486723e+00 -2.5784309950e+01 -3.7917908561e+01  9.5684657229e+01  8.3739682062e+01  4.609064e-13 9.
        5     1     3     0   103     0  9.3336769995e+00 -1.0671972692e+02  5.3775516111e+01  1.1996275995e+02  4.8000000000e+00 0. 9.
      -24     2     4     0     0     0 -4.8579915597e+01  2.3684169762e+01  7.6405738975e+01  1.2315432785e+02  8.0051254975e+01  2.588009e-13 9.
       -5     1     4     0     0   102  4.5619687270e+01  1.0881986711e+02  1.3769408834e+02  1.8139906645e+02  4.8000000000e+00 0. 9.
      -11     1     5     0     0     0  1.8209423304e+01 -4.8751807157e+01 -3.3157608192e+01  6.1706958923e+01  5.1100000000e-04 0. 9.
       12     1     5     0     0     0 -2.4582871977e+01  2.2967497208e+01 -4.7603003694e+00  3.3977698307e+01  0.0000000000e+00 0. 9.
        3     1     7     0   104     0 -3.2524132559e+00  4.3431294314e+01  1.9403671521e+01  4.7682365569e+01  5.0000000000e-01 0. 9.
       -4     1     7     0     0   104 -4.5327502342e+01 -1.9747124551e+01  5.7002067455e+01  7.5471962282e+01  1.5000000000e+00 0. 9.
#pdf   21   21  5.770448e-02  2.232641e-02  2.150636e+02  1.612731e+00  4.180345e+00
</event>
<event>
    12  9999  1.000000e+00  2.433393e+02  7.905467e-03  1.032777e-01
       21    -1     0     0   101   102  0.0000000000e+00  0.0000000000e+00  2.7044078157e+01  2.7044078157e+01  0.0000000000e+00 0. 9.
       21    -1     0     0   103   101  0.0000000000e+00  0.0000000000e+00 -2.2851592233e+03  2.2851592233e+03  0.0000000000e+00 0. 9.
        6     2     1     2   103     0 -1.7309480697e+02  4.1750672779e+00 -1.3671287498e+03  1.3886787542e+03  1.7148883539e+02  4.132526e-14 9.
       -6     2     1     2     0   102  1.7309480697e+02 -4.1750672779e+00 -8.9098639539e+02  9.2352454723e+02  1.7047459980e+02  2.148394e-14 9.
       24     2     3     0     0     0 -1.5394851456e+02 -5.4814328604e+01 -1.0024743849e+03  1.0187569042e+03  7.8778053256e+01  8.926003e-14 9.
        5     1     3     0   103     0 -1.9146292406e+01  5.8989395881e+01 -3.6465436482e+02  3.6992185002e+02  4.8000000000e+00 0. 9.
      -24     2     4     0     0     0  1.4935013349e+02  3.7996536942e+01 -8.1673089773e+02  8.3475984336e+02  7.7623692096e+01  3.707917e-14 9.
       -5     1     4     0     0   102  2.3744673479e+01 -4.2171604220e+01 -7.4255497654e+01  8.8764703869e+01  4.8000000000e+00 0. 9.
       -1     1     5     0     0   104 -1.0849649049e+02  1.5181729796e+00 -5.6291099199e+02  5.7327365813e+02  3.3000000000e-01 0. 9.
        2     1     5     0   104     0 -4.5452024070e+01 -5.6332501583e+01 -4.3956339296e+02  4.4548324610e+02  3.3000000000e-01 0. 9.
       13     1     7     0     0     0  3.8738197796e+01  2.5601511363e+01 -4.2481580770e+02  4.2734595702e+02  1.0566000000e-01  9.009798e+05 9.
      -14     1     7     0     0     0  1.1061193569e+02  1.2395025579e+01 -3.9191509004e+02  4.0741388633e+02  0.0000000000e+00 0. 9.
#pdf   21   21  4.160627e-03  3.515630e-01  2.429832e+02  1.541137e+01  5.630664e-02
</event>
<event>
    12  9999  1.000000e+00  1.806954e+02  7.878586e-03  1.070540e-01
       21    -1     0     0   101   102  0.0000000000e+00  0.0000000000e+00  2.5335521089e+01  2.5335521089e+01  0.0000000000e+00 0. 9.
       21    -1     0     0   102   103  0.0000000000e+00  0.0000000000e+00 -1.2907848852e+03  1.2907848852e+03  0.0000000000e+00 0. 9.
        6     2     1     2   101     0  5.7744025444e+01  9.8668957857e+00 -6.6000260847e+02  6.8437398123e+02  1.7126755353e+02  6.093193e-14 9.
       -6     2     1     2     0   103 -5.7744025444e+01 -9.8668957857e+00 -6.0544675562e+02  6.3174642504e+02  1.7060493413e+02  1.503544e-13 9.
       24     2     3     0     0     0  6.8481125140e+01  4.9633227694e+01 -3.0626721320e+02  3.2821612812e+02  8.2298840130e+01  2.115809e-13 9.
        5     1     3     0   101     0 -1.0737099695e+01 -3.9766331908e+01 -3.5373539527e+02  3.5615785311e+02  4.8000000000e+00 0. 9.
      -24     2     4     0     0     0 -9.8376967017e+01 -1.7227958062e+01 -5.3229723700e+02  5.4760895864e+02  8.0996252247e+01  3.500049e-14 9.
       -5     1     4     0     0   103  4.0632941573e+01  7.3610622758e+00 -7.3149518618e+01  8.4137466403e+01  4.8000000000e+00 0. 9.
       -1     1     5     0     0   104  3.1850726667e+00  4.9669732878e+01 -1.6957554550e+02  1.7672917582e+02  3.3000000000e-01 0. 9.
        2     1     5     0   104     0  6.5296052473e+01 -3.6505184857e-02 -1.3669166769e+02  1.5148695230e+02  3.3000000000e-01 0. 9.
       15     1     7     0     0     0 -9.1607477630e+01 -1.2791171500e+01 -2.7422508812e+02  2.8940991702e+02  1.7768200000e+00  7.699001e-02 9.
      -16     1     7     0     0     0 -6.7694893873e+00 -4.4367865612e+00 -2.5807214889e+02  2.5819904162e+02  0.0000000000e+00 0. 9.
#pdf   21   21  3.897772e-03  1.985823e-01  1.803823e+02  1.589766e+01  2.754195e-01
</event>
<event>
    12  9999  1.000000e+00  2.314655e+02  7.900936e-03  1.038934e-01
       21    -1     0     0   101   102  0.0000000000e+00  0.0000000000e+00  4.8849324340e+02  4.8849324340e+02  0.0000000000e+00 0. 9.
       21    -1     0     0   103   101  0.0000000000e+00  0.0000000000e+00 -1.3255502696e+02  1.3255502696e+02  0.0000000000e+00 0. 9.
        6     2     1     2   103     0 -8.6754565978e+01 -1.2963854012e+02  4.9264122719e+01  2.3711117700e+02  1.7164571264e+02  4.035042e-13 9.
       -6     2     1     2     0   102  8.6754565978e+01  1.2963854012e+02  3.0667409372e+02  3.8393709336e+02  1.7037073133e+02  1.185235e-13 9.
       24     2     3     0     0     0  7.2323047668e+00 -1.5524497040e+01  2.8575629193e+01  8.7757233412e+01  8.1187740403e+01  1.068122e-13 9.
        5     1     3     0   103     0 -9.3986870745e+01 -1.1411404308e+02  2.0688493525e+01  1.4935394359e+02  4.8000000000e+00 0. 9.
      -24     2     4     0     0     0  1.1195748155e+02  6.6943524415e+01  2.5373055715e+02  2.9796087564e+02  8.5939366108e+01  4.177524e-14 9.
       -5     1     4     0     0   102 -2.5202915569e+01  6.2695015710e+01  5.2943536578e+01  8.5976217720e+01  4.8000000000e+00 0. 9.
       -3     1     5     0     0   104  4.4654289199e+00 -2.1320108605e+01 -2.5351649190e+01  3.3428179774e+01  5.0000000000e-01 0. 9.
        4     1     5     0   104     0  2.7668758469e+00  5.7956115644e+00  5.3927278383e+01  5.4329053638e+01  1.5000000000e+00 0. 9.
        5     1     7     0   105     0  6.5597003952e+01  2.5581223705e+01  2.1113347805e+02  2.2261570360e+02  4.8000000000e+00 0. 9.
       -4     1     7     0     0   105  4.6360477595e+01  4.1362300710e+01  4.2597079095e+01  7.5345172044e+01  1.5000000000e+00 0. 9.
#pdf   21   21  7.515281e-02  2.039308e-02  2.309950e+02  1.170801e+00  4.521616e+00
</event>
<event>
    12  9999  1.000000e+00  2.145368e+02  7.894067e-03  1.048425e-01
       21    -1     0     0   101   102  0.0000000000e+00  0.0000000000e+00  1.9626510410e+02  1.9626510410e+02  0.0000000000e+00 0. 9.
       21    -1     0     0   103   101  0.0000000000e+00  0.0000000000e+00 -2.8390254292e+02  2.8390254292e+02  0.0000000000e+00 0. 9.
        6     2     1     2   103     0  1.1965903179e+02  5.0645522215e+01 -1.4391139213e+02  2.5810033156e+02  1.7035856174e+02  4.728593e-13 9.
       -6     2     1     2     0   102 -1.1965903179e+02 -5.0645522215e+01  5.6273953311e+01  2.2206731546e+02  1.7106689325e+02  1.263662e-13 9.
       24     2     3     0     0     0  1.1729979785e+02 -2.0178432037e+01 -1.0745496507e+02  1.7826481594e+02  7.7880442907e+01  1.362869e-13 9.
        5     1     3     0   103     0  2.3592339397e+00  7.0823954252e+01 -3.6456427052e+01  7.9835515618e+01  4.8000000000e+00 0. 9.
      -24     2     4     0     0     0 -1.3693438759e+02 -5.5154908128e+01  8.5574930202e+01  1.8742110750e+02  7.7527494889e+01  9.532926e-14 9.
       -5     1     4     0     0   102  1.7275355796e+01  4.5093859126e+00 -2.9300976891e+01  3.4646207959e+01  4.8000000000e+00 0. 9.
       -3     1     5     0     0   104  5.1945761800e+01  1.9611669145e+01 -1.3607595597e+01  5.7169890621e+01  5.0000000000e-01 0. 9.
        4     1     5     0   104     0  6.5354036052e+01 -3.9790101181e+01 -9.3847369476e+01  1.2109492532e+02  1.5000000000e+00 0. 9.
        3     1     7     0   105     0 -7.9497565012e+01 -5.9742065813e+01  2.2464077921e+01  1.0195029214e+02  5.0000000000e-01 0. 9.
       -4     1     7     0     0   105 -5.7436822576e+01  4.5871576852e+00  6.3110852281e+01  8.5470815363e+01  1.5000000000e+00 0. 9.
#pdf   21   21  3.019463e-02  4.367731e-02  2.142552e+02  3.164336e+00  2.187009e+00
</event>
<event>
    12  9999  1.000000e+00  2.316834e+02  7.901021e-03  1.038817e-01
       21    -1     0     0   101   102  0.0000000000e+00  0.0000000000e+00  7.4134349234e+01  7.4134349234e+01  0.0000000000e+00 0. 9.
       21    -1     0     0   102   103  0.0000000000e+00  0.0000000000e+00 -7.7437440894e+02  7.7437440894e+02  0.0000000000e+00 0. 9.
        6     2     1     2   101     0  1.5159836997e+02  3.6168533986e+01 -2.4284236746e+02  3.3605738245e+02  1.7225539247e+02  2.761493e-13 9.
       -6     2     1     2     0   103 -1.5159836997e+02 -3.6168533986e+01 -4.5739769224e+02  5.1245137572e+02  1.7059758201e+02  9.453994e-14 9.
       24     2     3     0     0     0  1.4277194847e+02 -9.0619737449e+00 -1.1609093963e+02  2.0110306054e+02  8.0618769856e+01  1.164955e-14 9.
        5     1     3     0   101     0  8.8264214948e+00  4.5230507731e+01 -1.2675142783e+02  1.3495432191e+02  4.8000000000e+00 0. 9.
      -24     2     4     0     0     0 -1.1671949238e+02 -6.4685776686e+01 -2.1828274633e+02  2.6908176671e+02  8.3366361473e+01  1.239492e-13 9.
       -5     1     4     0     0   103 -3.4878877587e+01  2.8517242699e+01 -2.3911494591e+02  2.4336960901e+02  4.8000000000e+00 0. 9.
       -1     1     5     0     0   104  3.3055266121e+01 -9.3312156513e+00 -7.7544359155e+01  8.4811312574e+01  3.3000000000e-01 0. 9.
        2     1     5     0   104     0  1.0971668235e+02  2.6924190643e-01 -3.8546580480e+01  1.1629174796e+02  3.3000000000e-01 0. 9.
        1     1     7     0   105     0 -7.8361492435e+01 -7.1427604177e+01 -1.9931056480e+02  2.2575924405e+02  3.3000000000e-01 0. 9.
       -2     1     7     0     0   105 -3.8357999943e+01  6.7418274909e+00 -1.8972181533e+01  4.3322522661e+01  3.3000000000e-01 0. 9.
#pdf   21   21  1.140528e-02  1.191345e-01  2.310709e+02  7.333537e+00  6.268605e-01
</event>
<event>
    12  9999  1.000000e+00  2.400112e+02  7.904219e-03  1.034464e-01
       21    -1     0     0   101   102  0.0000000000e+00  0.0000000000e+00  4.3538436976e+02  4.3538436976e+02  0.0000000000e+00 0. 9.
       21    -1     0     0   102   103  0.0000000000e+00  0.0000000000e+00 -2.3108119331e+02  2.3108119331e+02  0.0000000000e+00 0. 9.
        6     2     1     2   101     0  1.6593887353e+02 -2.5335712462e+01  3.1982507654e+02  3.9940783270e+02  1.7047266400e+02  1.111891e-13 9.
       -6     2     1     2     0   103 -1.6593887353e+02  2.5335712462e+01 -1.1552190008e+02  2.6705773036e+02  1.7261782606e+02  1.328504e-13 9.
       24     2     3     0     0     0  1.6156896435e+02 -6.9720788780e+01  2.7527641680e+02  3.3618794508e+02  7.9244622192e+01  1.083275e-13 9.
        5     1     3     0   101     0  4.3699091774e+00  4.4385076318e+01  4.4548659740e+01  6.3219887619e+01  4.8000000000e+00 0. 9.
      -24     2     4     0     0     0 -1.8705428781e+02  3.6821077738e+01 -1.2673492158e+02  2.4010320965e+02  7.2406578310e+01  1.341545e-14 9.
       -5     1     4     0     0   103  2.1115414280e+01 -1.1485365275e+01  1.1213021497e+01  2.6954520712e+01  4.8000000000e+00 0. 9.
       -3     1     5     0     0   104  1.3242115565e+01 -1.1787872999e+01 -4.9181585175e-01  1.7742588799e+01  5.0000000000e-01 0. 9.
        4     1     5     0   104     0  1.4832684879e+02 -5.7932915781e+01  2.7576823265e+02  3.1844535628e+02  1.5000000000e+00 0. 9.
        3     1     7     0   105     0 -1.2100893276e+02  6.9314393821e-01 -4.5327254280e+01  1.2922249122e+02  5.0000000000e-01 0. 9.
       -2     1     7     0     0   105 -6.6045355045e+01  3.6127933799e+01 -8.1407667299e+01  1.1088071843e+02  3.3000000000e-01 0. 9.
#pdf   21   21  6.698221e-02  3.555095e-02  2.392458e+02  1.343662e+00  2.684550e+00
</event>
<event>
    12  9999  1.000000e+00  1.835694e+02  7.880007e-03  1.068468e-01
       21    -1     0     0   101   102  0.0000000000e+00  0.0000000000e+00  1.6298568681e+02  1.6298568681e+02  0.0000000000e+00 0. 9.
       21    -1     0     0   103   101  0.0000000000e+00  0.0000000000e+00 -5.7857962812e+02  5.7857962812e+02  0.0000000000e+00 0. 9.
        6     2     1     2   103     0 -3.5201072815e+01 -5.8705630843e+01 -5.0455896741e+02  5.3651722095e+02  1.6907249973e+02  3.175814e-14 9.
       -6     2     1     2     0   102  3.5201072815e+01  5.8705630843e+01  8.8965026097e+01  2.0504809398e+02  1.7159393449e+02  1.583115e-13 9.
       24     2     3     0     0     0  1.7898899855e+01 -7.9314879851e+00 -4.0156540780e+02  4.0991416411e+02  7.9947270617e+01  1.169800e-13 9.
        5     1     3     0   103     0 -5.3099972670e+01 -5.0774142858e+01 -1.0299355960e+02  1.2660305684e+02  4.8000000000e+00 0. 9.
      -24     2     4     0     0     0 -2.4111551240e+00  1.8618771154e+01 -1.7457486969e+01  8.5171376897e+01  8.1221470579e+01  1.243721e-14 9.
       -5     1     4     0     0   102  3.7612227939e+01  4.0086859689e+01  1.0642251307e+02  1.1987671708e+02  4.8000000000e+00 0. 9.
       -3     1     5     0     0   104  1.9814580518e+01  3.3425419383e+01 -2.4013375334e+02  2.4325777635e+02  5.0000000000e-01 0. 9.
        2     1     5     0   104     0 -1.9156806628e+00 -4.1356907368e+01 -1.6143165447e+02  1.6665638777e+02  3.3000000000e-01 0. 9.
       13     1     7     0     0     0  3.5859657097e+01  4.8801629178e+00 -2.4772180498e+01  4.3856619658e+01  1.0566000000e-01  8.922670e+05 9.
      -14     1     7     0     0     0 -3.8270812221e+01  1.3738608236e+01  7.3146935289e+00  4.1314757239e+01  0.0000000000e+00 0. 9.
#pdf   21   21  2.507472e-02  8.901225e-02  1.824033e+02  3.782078e+00  9.643411e-01
</event>
<event>
    12  9999  1.000000e+00  2.009320e+02  7.888152e-03  1.056755e-01
       21    -1     0     0   101   102  0.0000000000e+00  0.0000000000e+00  7.2946589489e+01  7.2946589489e+01  0.0000000000e+00 0. 9.
       21    -1     0     0   102   103  0.0000000000e+00  0.0000000000e+00 -6.1515188916e+02  6.1515188916e+02  0.0000000000e+00 0. 9.
        6     2     1     2   101     0 -1.4007726529e+02  8.9331111971e+00 -1.4451527523e+02  2.3368380756e+02  1.1841459545e+02  5.136427e-15 9.
       -6     2     1     2     0   103  1.4007726529e+02 -8.9331111971e+00 -3.9769002444e+02  4.5441467109e+02  1.6921553426e+02  2.787449e-13 9.
       24     2     3     0     0     0 -9.4079488904e+01  3.6649885947e+01 -9.5082554450e+01  1.6053567759e+02  8.0850771461e+01  5.766200e-15 9.
        5     1     3     0   101     0 -4.5997776384e+01 -2.7716774750e+01 -4.9432720784e+01  7.3148129976e+01  4.8000000000e+00 0. 9.
      -24     2     4     0     0     0  5.1082328255e+01  3.7342664509e+00 -3.2520534832e+02  3.3883945945e+02  8.0189224297e+01  6.052076e-14 9.
       -5     1     4     0     0   103  8.8994937033e+01 -1.2667377648e+01 -7.2484676113e+01  1.1557521164e+02  4.8000000000e+00 0. 9.
      -13     1     5     0     0     0 -8.1690456215e+01  2.0360795624e+01 -2.5441445698e+01  8.7949820683e+01  1.0566000000e-01  4.082459e+05 9.
       14     1     5     0     0     0 -1.2389032690e+01  1.6289090323e+01 -6.9641108752e+01  7.2585856905e+01  0.0000000000e+00 0. 9.
        1     1     7     0   104     0  3.2725357046e+01 -3.7324956255e+01 -1.8840886179e+02  1.9483867545e+02  3.3000000000e-01 0. 9.
       -2     1     7     0     0   104  1.8356971208e+01  4.1059222706e+01 -1.3679648654e+02  1.4400078399e+02  3.3000000000e-01 0. 9.
#pdf   21   21  1.122255e-02  9.463875e-02  1.836395e+02  7.419028e+00  8.887817e-01
</event>
<event>
    12  9999  1.000000e+00  1.755750e+02  7.876000e-03  1.074337e-01
       21    -1     0     0   101   102  0.0000000000e+00  0.0000000000e+00  6.0429989412e+01  6.0429989412e+01  0.0000000000e+00 0. 9.
       21    -1     0     0   102   103  0.0000000000e+00  0.0000000000e+00 -5.3945233521e+02  5.3945233521e+02  0.0000000000e+00 0. 9.
        6     2     1     2   101     0  1.9306180476e+01 -2.7786674342e+01 -3.0687536275e+02  3.5259968077e+02  1.7032092866e+02  4.877920e-14 9.
       -6     2     1     2     0   103 -1.9306180476e+01  2.7786674342e+01 -1.7214698304e+02  2.4728264385e+02  1.7426788087e+02  2.549252e-13 9.
       24     2     3     0     0     0  3.4203648862e+00 -7.2393051748e+01 -1.2855958819e+02  1.6804171291e+02  8.0361662032e+01  4.863846e-14 9.
        5     1     3     0   101     0  1.5885815590e+01  4.4606377406e+01 -1.7831577457e+02  1.8455796787e+02  4.8000000000e+00 0. 9.
      -24     2     4     0     0     0 -1.6266230967e+01 -5.2109063886e+01 -7.7637584884e+01  1.2339706511e+02  7.8862515060e+01  3.419812e-14 9.
       -5     1     4     0     0   103 -3.0399495095e+00  7.9895738228e+01 -9.4509398160e+01  1.2388557874e+02  4.8000000000e+00 0. 9.
      -11     1     5     0     0     0  2.9250688417e+01 -5.9789985928e+01 -1.2135650881e+02  1.3841187601e+02  5.1100000000e-04 0. 9.
       12     1     5     0     0     0 -2.5830323531e+01 -1.2603065821e+01 -7.2030793724e+00  2.9629836892e+01  0.0000000000e+00 0. 9.
        3     1     7     0   104     0  2.3663861508e+01 -6.0295383158e+00 -5.1582748239e+01  5.7073317668e+01  5.0000000000e-01 0. 9.
       -4     1     7     0     0   104 -3.9930092474e+01 -4.6079525570e+01 -2.6054836644e+01  6.6323747439e+01  1.5000000000e+00 0. 9.
#pdf   21   21  9.296921e-03  8.299267e-02  1.736492e+02  8.562582e+00  1.060076e+00
</event>
<event>
    12  9999  1.000000e+00  1.875003e+02  7.881915e-03  1.065699e-01
       21    -1     0     0   101   102  0.0000000000e+00  0.0000000000e+00  2.1307802733e+02  2.1307802733e+02  0.0000000000e+00 0. 9.
       21    -1     0     0   102   103  0.0000000000e+00  0.0000000000e+00 -1.8189268966e+02  1.8189268966e+02  0.0000000000e+00 0. 9.
        6     2     1     2   101     0 -7.5689093837e+01 -1.0532461078e+00  7.5785192310e+01  2.0219419686e+02  1.7149096075e+02  1.834544e-14 9.
       -6     2     1     2     0   103  7.5689093837e+01  1.0532461078e+00 -4.4599854647e+01  1.9277652013e+02  1.7159164148e+02  9.244523e-14 9.
       24     2     3     0     0     0 -4.1906424345e+01  6.5657842472e+01  3.8907376864e+01  1.1867981864e+02  8.0647471744e+01  3.452998e-15 9.
        5     1     3     0   101     0 -3.3782669493e+01 -6.6711088580e+01  3.6877815446e+01  8.3514378221e+01  4.8000000000e+00 0. 9.
      -24     2     4     0     0     0  3.5085697939e+01  5.7121315764e+01 -6.1181530231e+01  1.2143048900e+02  8.0674240636e+01  4.850387e-15 9.
       -5     1     4     0     0   103  4.0603395898e+01 -5.6068069656e+01  1.6581675584e+01  7.1346031134e+01  4.8000000000e+00 0. 9.
       -1     1     5     0     0   104 -6.2506185956e+01  2.6765148891e+01  2.6202509784e+01  7.2870274439e+01  3.3000000000e-01 0. 9.
        2     1     5     0   104     0  2.0599761611e+01  3.8892693581e+01  1.2704867080e+01  4.5809544201e+01  3.3000000000e-01 0. 9.
        1     1     7     0   105     0  5.3343199320e+01  1.1710486144e+01 -4.1854651738e+01  6.8808089434e+01  3.3000000000e-01 0. 9.
       -2     1     7     0     0   105 -1.8257501381e+01  4.5410829620e+01 -1.9326878493e+01  5.2622399563e+01  3.3000000000e-01 0. 9.
#pdf   21   21  3.278123e-02  2.798349e-02  1.874543e+02  2.939607e+00  3.416418e+00
</event>
<event>
    12  9999  1.000000e+00  2.325688e+02  7.901366e-03  1.038345e-01
       21    -1     0     0   101   102  0.0000000000e+00  0.0000000000e+00  3.8275827514e+02  3.8275827514e+02  0.0000000000e+00 0. 9.
       21    -1     0     0   103   101  0.0000000000e+00  0.0000000000e+00 -1.4339364764e+02  1.4339364764e+02  0.0000000000e+00 0. 9.
        6     2     1     2   103     0  8.6378232307e+00 -1.5876154451e+02  8.8815648921e+01  2.5040029693e+02  1.7184949579e+02  1.407966e-13 9.
       -6     2     1     2     0   102 -8.6378232307e+00  1.5876154451e+02  1.5054897857e+02  2.7575162585e+02  1.6761301920e+02  1.916832e-13 9.
       24     2     3     0     0     0  4.0751410480e+01 -1.4002850300e+02  1.4346859217e+01  1.6702853930e+02  8.0150118282e+01  1.901130e-13 9.
        5     1     3     0   103     0 -3.2113587250e+01 -1.8733041506e+01  7.4468789704e+01  8.3371757629e+01  4.8000000000e+00 0. 9.
      -24     2     4     0     0     0 -5.7544086518e+01  1.5197855711e+02  1.0798559589e+02  2.1038716263e+02  7.8696032728e+01  7.833387e-14 9.
       -5     1     4     0     0   102  4.8906263288e+01  6.7829874033e+00  4.2563382677e+01  6.5364463218e+01  4.8000000000e+00 0. 9.
       -1     1     5     0     0   104 -9.9476778930e+00 -6.2443990255e+01 -2.2747449322e+01  6.7199431285e+01  3.3000000000e-01 0. 9.
        2     1     5     0   104     0  5.0699088373e+01 -7.7584512750e+01  3.7094308539e+01  9.9829108012e+01  3.3000000000e-01 0. 9.
        1     1     7     0   105     0 -4.2170571810e+01  1.8329591198e+01  2.9594283465e+01  5.4683284046e+01  3.3000000000e-01 0. 9.
       -2     1     7     0     0   105 -1.5373514708e+01  1.3364896591e+02  7.8391312429e+01  1.5570387859e+02  3.3000000000e-01 0. 9.
#pdf   21   21  5.888589e-02  2.206056e-02  2.310281e+02  1.567467e+00  4.217302e+00
</event>
<event>
    12  9999  1.000000e+00  2.386866e+02  7.903718e-03  1.035144e-01
       21    -1     0     0   101   102  0.0000000000e+00  0.0000000000e+00  1.7648461352e+02  1.7648461352e+02  0.0000000000e+00 0. 9.
       21    -1     0     0   103   101  0.0000000000e+00  0.0000000000e+00 -3.3029824020e+02  3.3029824020e+02  0.0000000000e+00 0. 9.
        6     2     1     2   103     0 -1.6353559903e+01  1.6538468413e+02 -1.1502759853e+02  2.6487836262e+02  1.7120065973e+02  3.248908e-14 9.
       -6     2     1     2     0   102  1.6353559903e+01 -1.6538468413e+02 -3.8786028143e+01  2.4190449110e+02  1.7144647612e+02  1.632462e-13 9.
       24     2     3     0     0     0  3.0451372253e+01  1.2743622279e+02 -1.3155725692e+02  2.0221212770e+02  8.0094667677e+01  8.406860e-15 9.
        5     1     3     0   103     0 -4.6804932156e+01  3.7948461337e+01  1.6529658388e+01  6.2666234915e+01  4.8000000000e+00 0. 9.
      -24     2     4     0     0     0  4.3143826682e+01 -1.3750747959e+02 -7.5033169228e+01  1.8869028094e+02  9.5939298062e+01  5.399507e-14 9.
       -5     1     4     0     0   102 -2.6790266779e+01 -2.7877204536e+01  3.6247141085e+01  5.3214210166e+01  4.8000000000e+00 0. 9.
       -3     1     5     0     0   104 -1.0162090884e+01  8.8802828418e+01 -4.7646049335e+01  1.0128971539e+02  5.0000000000e-01 0. 9.
        4     1     5     0   104     0  4.0613463137e+01  3.8633394371e+01 -8.3911207587e+01  1.0092241231e+02  1.5000000000e+00 0. 9.
       13     1     7     0     0     0  3.1999743317e+01 -1.5171713195e+02 -6.6399805518e+01  1.6867429275e+02  1.0566000000e-01  3.971037e+05 9.
      -14     1     7     0     0     0  1.1144083364e+01  1.4209652357e+01 -8.6333637099e+00  2.0015988187e+01  0.0000000000e+00 0. 9.
#pdf   21   21  2.715148e-02  5.081511e-02  2.385984e+02  3.484713e+00  1.846054e+00
</event>
<event>
    12  9999  1.000000e+00  1.935038e+02  7.884755e-03  1.061606e-01
       21    -1     0     0   101   102  0.0000000000e+00  0.0000000000e+00  1.0384165887e+03  1.0384165887e+03  0.0000000000e+00 0. 9.
       21    -1     0     0   102   103  0.0000000000e+00  0.0000000000e+00 -7.2177522969e+01  7.2177522969e+01  0.0000000000e+00 0. 9.
        6     2     1     2   101     0 -1.7289386807e+01  8.6556292199e+01  8.7481177120e+02  8.9576408472e+02  1.7119213130e+02  2.138733e-14 9.
       -6     2     1     2     0   103  1.7289386807e+01 -8.6556292199e+01  9.1427294488e+01  2.1483002691e+02  1.7321107260e+02  3.082491e-13 9.
       24     2     3     0     0     0  3.9822536688e+01  8.4728970925e+01  7.2195354125e+02  7.3250420179e+02  8.1121248629e+01  1.699703e-13 9.
        5     1     3     0   101     0 -5.7111923495e+01  1.8273212744e+00  1.5285822995e+02  1.6325988292e+02  4.8000000000e+00 0. 9.
      -24     2     4     0     0     0  2.9974349376e+01 -1.2642724094e+02  6.1134705100e+01  1.6295246142e+02  7.7030796717e+01  9.700763e-14 9.
       -5     1     4     0     0   103 -1.2684962569e+01  3.9870948744e+01  3.0292589388e+01  5.1877565488e+01  4.8000000000e+00 0. 9.
       -3     1     5     0     0   104  1.9718971884e+01 -1.3302865944e+01  1.3709662278e+02  1.3914574400e+02  5.0000000000e-01 0. 9.
        4     1     5     0   104     0  2.0103564804e+01  9.8031836868e+01  5.8485691846e+02  5.9335845779e+02  1.5000000000e+00 0. 9.
        5     1     7     0   105     0  4.0058360512e+01 -1.0820779072e+02  7.5171378903e+01  1.3779468214e+02  4.8000000000e+00 0. 9.
       -4     1     7     0     0   105 -1.0084011136e+01 -1.8219450221e+01 -1.4036673803e+01  2.5157779282e+01  1.5000000000e+00 0. 9.
#pdf   21   21  1.597564e-01  1.110423e-02  1.926075e+02  4.038201e-01  7.483761e+00
</event>
<event>
    12  9999  1.000000e+00  1.775471e+02  7.877004e-03  1.072858e-01
       21    -1     0     0   101   102  0.0000000000e+00  0.0000000000e+00  1.3194683782e+03  1.3194683782e+03  0.0000000000e+00 0. 9.
       21    -1     0     0   103   101  0.0000000000e+00  0.0000000000e+00 -2.3954785226e+01  2.3954785226e+01  0.0000000000e+00 0. 9.
        6     2     1     2   103     0  4.5020644861e+01  1.2743519819e+01  6.1290964829e+02  6.3810012923e+02  1.7124334203e+02  2.211665e-15 9.
       -6     2     1     2     0   102 -4.5020644861e+01 -1.2743519819e+01  6.8260394465e+02  7.0532303417e+02  1.7129851579e+02  9.996305e-14 9.
       24     2     3     0     0     0  1.5372198416e+01  4.1208954089e+01  1.5706123076e+02  1.8037736260e+02  7.7027789459e+01  2.294246e-15 9.
        5     1     3     0   103     0  2.9648446445e+01 -2.8465434270e+01  4.5584841753e+02  4.5772276662e+02  4.8000000000e+00 0. 9.
      -24     2     4     0     0     0  2.7932477795e+01 -2.7834553340e+01  4.7652326078e+02  4.8613775714e+02  8.7752579351e+01  5.868642e-14 9.
       -5     1     4     0     0   102 -7.2953122656e+01  1.5091033521e+01  2.0608068388e+02  2.1918527703e+02  4.8000000000e+00 0. 9.
      -13     1     5     0     0     0 -1.7234148663e+01 -9.6461860022e+00  1.1682654657e+01  2.2946903242e+01  1.0566000000e-01  2.207128e+05 9.
       14     1     5     0     0     0  3.2606347078e+01  5.0855140091e+01  1.4537857611e+02  1.5743045936e+02  0.0000000000e+00 0. 9.
       13     1     7     0     0     0  4.7163361242e+01 -1.0902465784e+01  4.3250230530e+02  4.3520282818e+02  1.0566000000e-01  6.012970e+04 9.
      -14     1     7     0     0     0 -1.9230883446e+01 -1.6932087556e+01  4.4020955477e+01  5.0934928961e+01  0.0000000000e+00 0. 9.
#pdf   21   21  2.029951e-01  3.685352e-03  1.775205e+02  2.645953e-01  1.649120e+01
</event>
<event>
    12  9999  1.000000e+00  1.731864e+02  7.874768e-03  1.076155e-01
       -1    -1     0     0     0   101  0.0000000000e+00  0.0000000000e+00  2.9339614853e+01  2.9339614853e+01  0.0000000000e+00 0. 9.
        1    -1     0     0   102     0  0.0000000000e+00  0.0000000000e+00 -1.0460670751e+03  1.0460670751e+03  0.0000000000e+00 0. 9.
       -6     2     1     2     0   101  1.2843999170e+01 -2.4561088423e+01 -4.2918464140e+02  4.6305407284e+02  1.7161410949e+02  1.509416e-13 9.
        6     2     1     2   102     0 -1.2843999170e+01  2.4561088423e+01 -5.8754281888e+02  6.1235261715e+02  1.7029664804e+02  8.501283e-15 9.
      -24     2     3     0     0     0  2.0143076376e+01  4.5188640970e+01 -3.2727651754e+02  3.3925339841e+02  7.4398875026e+01  1.175427e-13 9.
       -5     1     3     0     0   101 -7.2990772060e+00 -6.9749729393e+01 -1.0190812387e+02  1.2380067443e+02  4.8000000000e+00 0. 9.
       24     2     4     0     0     0  3.7090790709e+00 -3.2910379761e+01 -1.7654686441e+02  1.9700012992e+02  8.0891319021e+01  2.632169e-13 9.
        5     1     4     0   102     0 -1.6553078241e+01  5.7471468184e+01 -4.1099595447e+02  4.1535248723e+02  4.8000000000e+00 0. 9.
       11     1     5     0     0     0  1.7990290621e+01  4.4629318417e+00 -2.5944202545e+02  2.6010331195e+02  5.1100000000e-04 0. 9.
      -12     1     5     0     0     0  2.1527857549e+00  4.0725709129e+01 -6.7834492089e+01  7.9150086466e+01  0.0000000000e+00 0. 9.
       -3     1     7     0     0   103  2.9222555519e+01 -4.2511223203e+01 -6.9608945729e+01  8.6641890416e+01  5.0000000000e-01 0. 9.
        2     1     7     0   103     0 -2.5513476448e+01  9.6008434417e+00 -1.0693791868e+02  1.1035823951e+02  3.3000000000e-01 0. 9.
#pdf   -1    1  4.513787e-03  1.609334e-01  1.725374e+02  8.102655e-01  2.694505e-01
</event>
<event>
    12  9999  1.000000e+00  2.529541e+02  7.908980e-03  1.028058e-01
       21    -1     0     0   101   102  0.0000000000e+00  0.0000000000e+00  7.4707118903e+02  7.4707118903e+02  0.0000000000e+00 0. 9.
       21    -1     0     0   102   103  0.0000000000e+00  0.0000000000e+00 -9.6791586091e+01  9.6791586091e+01  0.0000000000e+00 0. 9.
        6     2     1     2   101     0 -1.8211805393e+02 -2.1516070267e+01  4.7105148195e+02  5.3585234469e+02  1.7781538126e+02  4.254069e-14 9.
       -6     2     1     2     0   103  1.8211805393e+02  2.1516070267e+01  1.7922812098e+02  3.0801043043e+02  1.7063932447e+02  2.038118e-13 9.
       24     2     3     0     0     0 -1.2417732023e+02 -5.4116833431e+01  4.2885869924e+02  4.5696502445e+02  8.0923489416e+01  1.288877e-14 9.
        5     1     3     0   101     0 -5.7940733704e+01  3.2600763164e+01  4.2192782711e+01  7.8887320236e+01  4.8000000000e+00 0. 9.
      -24     2     4     0     0     0  1.0934992673e+02  4.5654421370e+01  3.8315498250e+01  1.4751972174e+02  7.9071222513e+01  8.990037e-15 9.
       -5     1     4     0     0   103  7.2768127200e+01 -2.4138351103e+01  1.4091262273e+02  1.6049070869e+02  4.8000000000e+00 0. 9.
      -13     1     5     0     0     0 -3.5474244427e+01 -2.6643936125e+01  4.9792448568e+01  6.6690482442e+01  1.0566000000e-01  5.721663e+05 9.
       14     1     5     0     0     0 -8.8703075799e+01 -2.7472897306e+01  3.7906625067e+02  3.9027454201e+02  0.0000000000e+00 0. 9.
        3     1     7     0   104     0  1.6132306987e+01  4.5422948940e+01  2.1512530548e+01  5.2787636713e+01  5.0000000000e-01 0. 9.
       -4     1     7     0     0   104  9.3217619742e+01  2.3147242959e-01  1.6802967702e+01  9.4732085027e+01  1.5000000000e+00 0. 9.
#pdf   21   21  1.149340e-01  1.489101e-02  2.504949e+02  6.547615e-01  5.907043e+00
</event>
<event>
    12  9999  1.000000e+00  1.897441e+02  7.882986e-03  1.064150e-01
       21    -1     0     0   101   102  0.0000000000e+00  0.0000000000e+00  2.6175112978e+03  2.6175112978e+03  0.0000000000e+00 0. 9.
       21    -1     0     0   103   101  0.0000000000e+00  0.0000000000e+00 -1.7309660209e+01  1.7309660209e+01  0.0000000000e+00 0. 9.
        6     2     1     2   103     0  7.8682334798e+01 -2.2683848135e+01  6.9920338989e+02  7.2430564815e+02  1.7037554030e+02  1.711198e-14 9.
       -6     2     1     2     0   102 -7.8682334798e+01  2.2683848135e+01  1.9009982477e+03  1.9105153099e+03  1.7195622892e+02  1.803375e-13 9.
       24     2     3     0     0     0  7.5883792627e+01  2.1399728247e+01  2.7715262913e+02  2.9992247435e+02  8.3208247399e+01  7.386308e-14 9.
        5     1     3     0   103     0  2.7985421712e+00 -4.4083576382e+01  4.2205076077e+02  4.2438317380e+02  4.8000000000e+00 0. 9.
      -24     2     4     0     0     0 -7.2433516478e+00  4.5328155673e+01  1.4734448483e+03  1.4764171156e+03  8.1612929220e+01  6.492024e-14 9.
       -5     1     4     0     0   102 -7.1438983150e+01 -2.2644307537e+01  4.2755339940e+02  4.3409819433e+02  4.8000000000e+00 0. 9.
       -1     1     5     0     0   104  1.7055864082e+00  3.3243553071e+01  1.3612694962e+02  1.4013813956e+02  3.3000000000e-01 0. 9.
        2     1     5     0   104     0  7.4178206219e+01 -1.1843824825e+01  1.4102567950e+02  1.5978433479e+02  3.3000000000e-01 0. 9.
        1     1     7     0   105     0  1.4122588795e+01  1.6563628550e+01  9.3256715930e+01  9.5763903801e+01  3.3000000000e-01 0. 9.
       -2     1     7     0     0   105 -2.1365940443e+01  2.8764527123e+01  1.3801881324e+03  1.3806532118e+03  3.3000000000e-01 0. 9.
#pdf   21   21  4.026940e-01  2.663025e-03  1.890325e+02  3.395567e-02  2.048830e+01
</event>
<event>
    12  9999  1.000000e+00  2.948945e+02  7.922919e-03  1.009798e-01
       -2    -1     0     0     0   101  0.0000000000e+00  0.0000000000e+00  2.0804823459e+02  2.0804823459e+02  0.0000000000e+00 0. 9.
        2    -1     0     0   102     0  0.0000000000e+00  0.0000000000e+00 -4.5614686029e+02  4.5614686029e+02  0.0000000000e+00 0. 9.
       -6     2     1     2     0   101 -1.2167947932e+02  2.0651431935e+02 -2.2027068680e+02  3.6844529000e+02  1.7256504998e+02  1.900200e-13 9.
        6     2     1     2   102     0  1.2167947932e+02 -2.0651431935e+02 -2.7827938902e+01  2.9574980489e+02  1.7099559388e+02  9.095031e-14 9.
      -24     2     3     0     0     0 -1.3643416295e+02  1.0491221808e+02 -1.1991679586e+02  2.2479769657e+02  8.0827669331e+01  1.526515e-14 9.
       -5     1     3     0     0   101  1.4754683635e+01  1.0160210126e+02 -1.0035389095e+02  1.4364759343e+02  4.8000000000e+00 0. 9.
       24     2     4     0     0     0  4.4709465661e+01 -9.5457782561e+01 -7.7109998540e+01  1.5184115759e+02  7.7451021246e+01  3.054215e-13 9.
        5     1     4     0   102     0  7.6970013657e+01 -1.1105653678e+02  4.9282059638e+01  1.4390864730e+02  4.8000000000e+00 0. 9.
       15     1     5     0     0     0 -6.2948977821e+01  4.1462795537e+00 -5.7316978758e+01  8.5253496035e+01  1.7768200000e+00  1.004531e-02 9.
      -16     1     5     0     0     0 -7.3485185133e+01  1.0076593853e+02 -6.2599817097e+01  1.3954420053e+02  0.0000000000e+00 0. 9.
      -15     1     7     0     0     0  1.1139199040e+01 -6.9868692038e+01 -8.4942192567e+00  7.1281307034e+01  1.7768200000e+00  8.008350e-02 9.
       16     1     7     0     0     0  3.3570266621e+01 -2.5589090523e+01 -6.8615779284e+01  8.0559850555e+01  0.0000000000e+00 0. 9.
#pdf   -2    2  3.200742e-02  7.017644e-02  2.944377e+02  2.345120e-01  6.022576e-01
</event>
<event>
    12  9999  1.000000e+00  1.828785e+02  7.879667e-03  1.068963e-01
       21    -1     0     0   101   102  0.0000000000e+00  0.0000000000e+00  4.0359027785e+02  4.0359027785e+02  0.0000000000e+00 0. 9.
       21    -1     0     0   103   101  0.0000000000e+00  0.0000000000e+00 -7.0453387697e+02  7.0453387697e+02  0.0000000000e+00 0. 9.
        6     2     1     2   103     0 -2.0843046318e+01 -5.9624357271e+01 -6.7098229006e+02  6.9560105433e+02  1.7220364877e+02  1.901082e-13 9.
       -6     2     1     2     0   102  2.0843046318e+01  5.9624357271e+01  3.7003869094e+02  4.1252310050e+02  1.7104730075e+02  7.214573e-13 9.
       24     2     3     0     0     0  4.9955141981e+01 -6.0845390873e+00 -3.2227326609e+02  3.3574008257e+02  7.9553800548e+01  1.650345e-13 9.
        5     1     3     0   103     0 -7.0798188299e+01 -5.3539818183e+01 -3.4870902397e+02  3.5986097176e+02  4.8000000000e+00 0. 9.
      -24     2     4     0     0     0 -6.2471896639e+00  8.2420971253e+01  3.5603467529e+02  3.7414708000e+02  7.9956885807e+01  2.649874e-14 9.
       -5     1     4     0     0   102  2.7090235982e+01 -2.2796613982e+01  1.4004015651e+01  3.8376020494e+01  4.8000000000e+00 0. 9.
      -11     1     5     0     0     0  2.8751129338e+01 -2.1942304132e+01 -2.9680887859e+02  2.9900435208e+02  5.1100000000e-04 0. 9.
       12     1     5     0     0     0  2.1204012643e+01  1.5857765044e+01 -2.5464387501e+01  3.6735730497e+01  0.0000000000e+00 0. 9.
        3     1     7     0   104     0 -2.8832165510e+00 -1.1125013225e+01  8.7164306837e+00  1.4432775922e+01  5.0000000000e-01 0. 9.
       -4     1     7     0     0   104 -3.3639731129e+00  9.3545984479e+01  3.4731824460e+02  3.5971430408e+02  1.5000000000e+00 0. 9.
#pdf   21   21  6.209081e-02  1.083898e-01  1.823367e+02  1.500560e+00  7.384302e-01
</event>
<event>
    12  9999  1.000000e+00  2.837625e+02  7.919418e-03  1.014316e-01
       21    -1     0     0   101   102  0.0000000000e+00  0.0000000000e+00  8.5294669945e+02  8.5294669945e+02  0.0000000000e+00 0. 9.
       21    -1     0     0   102   103  0.0000000000e+00  0.0000000000e+00 -1.0879588565e+02  1.0879588565e+02  0.0000000000e+00 0. 9.
        6     2     1     2   101     0 -2.1146260609e+02  8.1678022249e+01  1.9753645769e+02  3.4600793233e+02  1.7121070067e+02  4.386124e-13 9.
       -6     2     1     2     0   103  2.1146260609e+02 -8.1678022249e+01  5.4661435611e+02  6.1573465277e+02  1.7015926428e+02  2.295355e-13 9.
       24     2     3     0     0     0 -1.0865385736e+02  1.0975949170e+02  9.7826658783e+01  1.9998296275e+02  8.1057531936e+01  4.782812e-14 9.
        5     1     3     0   101     0 -1.0280874873e+02 -2.8081469454e+01  9.9709798905e+01  1.4602496958e+02  4.8000000000e+00 0. 9.
      -24     2     4     0     0     0  2.8643928237e+01 -3.1681620247e+01  1.7316933194e+02  1.9691901880e+02  8.3458269518e+01  9.477253e-15 9.
       -5     1     4     0     0   103  1.8281867785e+02 -4.9996402002e+01  3.7344502417e+02  4.1881563397e+02  4.8000000000e+00 0. 9.
       -1     1     5     0     0   104 -1.9581388441e+01 -2.5072504220e+00 -8.5346765701e+00  2.1509688099e+01  3.3000000000e-01 0. 9.
        4     1     5     0   104     0 -8.9072468922e+01  1.1226674213e+02  1.0636133535e+02  1.7847327465e+02  1.5000000000e+00 0. 9.
        1     1     7     0   105     0  4.6034085911e+01  2.4937797742e-01  1.4115663780e+02  1.4847391876e+02  3.3000000000e-01 0. 9.
       -2     1     7     0     0   105 -1.7390157674e+01 -3.1930998225e+01  3.2012694140e+01  4.8445100038e+01  3.3000000000e-01 0. 9.
#pdf   21   21  1.312226e-01  1.673783e-02  2.834465e+02  5.277614e-01  5.345087e+00
</event>
<event>
    12  9999  1.000000e+00  2.163889e+02  7.894844e-03  1.047342e-01
       21    -1     0     0   101   102  0.0000000000e+00  0.0000000000e+00  3.4778103770e+01  3.4778103770e+01  0.0000000000e+00 0. 9.
       21    -1     0     0   102   103  0.0000000000e+00  0.0000000000e+00 -1.3552525979e+03  1.3552525979e+03  0.0000000000e+00 0. 9.
        6     2     1     2   101     0 -9.1730782225e+01 -9.5901893124e+01 -7.1427723890e+02  7.4612694762e+02  1.7000511299e+02  2.727082e-13 9.
       -6     2     1     2     0   103  9.1730782225e+01  9.5901893124e+01 -6.0619725522e+02  6.4390375404e+02  1.7182905086e+02  4.439580e-13 9.
       24     2     3     0     0     0 -5.6519352169e+01 -4.3228170971e+01 -6.3728406308e+02  6.4630032324e+02  8.0684687698e+01  1.865956e-13 9.
        5     1     3     0   101     0 -3.5211430056e+01 -5.2673722153e+01 -7.6993175815e+01  9.9826624375e+01  4.8000000000e+00 0. 9.
      -24     2     4     0     0     0  2.5572245729e+01  3.9104790882e+01 -4.9004995898e+02  4.9858996530e+02  7.9119319887e+01  1.354818e-14 9.
       -5     1     4     0     0   103  6.6158536496e+01  5.6797102242e+01 -1.1614729624e+02  1.4531378874e+02  4.8000000000e+00 0. 9.
       -1     1     5     0     0   104 -4.6240553287e+01 -6.3239906955e+01 -5.6989030508e+02  5.7524998333e+02  3.3000000000e-01 0. 9.
        2     1     5     0   104     0 -1.0278798883e+01  2.0011735985e+01 -6.7393758007e+01  7.1050339914e+01  3.3000000000e-01 0. 9.
       13     1     7     0     0     0  3.6977027752e+01  9.0524648661e+00 -4.1757494575e+02  4.1930668273e+02  1.0566000000e-01  6.385752e+05 9.
      -14     1     7     0     0     0 -1.1404782023e+01  3.0052326016e+01 -7.2475013228e+01  7.9283282565e+01  0.0000000000e+00 0. 9.
#pdf   21   21  5.350478e-03  2.085004e-01  2.156698e+02  1.287809e+01  2.422373e-01
</event>
<event>
    12  9999  1.000000e+00  1.810663e+02  7.878771e-03  1.070271e-01
       21    -1     0     0   101   102  0.0000000000e+00  0.0000000000e+00  1.3900966847e+02  1.3900966847e+02  0.0000000000e+00 0. 9.
       21    -1     0     0   102   103  0.0000000000e+00  0.0000000000e+00 -6.2556637126e+02  6.2556637126e+02  0.0000000000e+00 0. 9.
        6     2     1     2   101     0 -2.5759190985e+01  5.1307779282e+01  5.8451686454e+01  1.9028216477e+02  1.7174014803e+02  3.095643e-13 9.
       -6     2     1     2     0   103  2.5759190985e+01 -5.1307779282e+01 -5.4500838924e+02  5.7429387495e+02  1.7170697809e+02  1.552372e-13 9.
       24     2     3     0     0     0  4.9380001999e+01  9.6518587941e+00  4.2502519316e+01  1.0276913736e+02  7.8889089682e+01  1.086062e-13 9.
        5     1     3     0   101     0 -7.5139192983e+01  4.1655920488e+01  1.5949167138e+01  8.7513027409e+01  4.8000000000e+00 0. 9.
      -24     2     4     0     0     0 -9.7389596551e+00 -6.9954883312e+01 -5.0862048830e+02  5.1993439995e+02  8.1538004006e+01  3.287796e-13 9.
       -5     1     4     0     0   103  3.5498150640e+01  1.8647104030e+01 -3.6387900946e+01  5.4359475005e+01  4.8000000000e+00 0. 9.
       -1     1     5     0     0   104  5.2725350352e+01 -2.2543248605e+01  4.0756981593e+01  7.0351979901e+01  3.3000000000e-01 0. 9.
        2     1     5     0   104     0 -3.3453483538e+00  3.2195107399e+01  1.7455377229e+00  3.2417157463e+01  3.3000000000e-01 0. 9.
       13     1     7     0     0     0 -1.0475916673e+01 -3.5316279368e+00 -3.1578059529e+02  3.1597406975e+02  1.0566000000e-01  3.315997e+05 9.
      -14     1     7     0     0     0  7.3695701789e-01 -6.6423255375e+01 -1.9283989300e+02  2.0396033020e+02  0.0000000000e+00 0. 9.
#pdf   21   21  2.138610e-02  9.624098e-02  1.810506e+02  4.359411e+00  8.702396e-01
</event>
<event>
    12  9999  1.000000e+00  2.015874e+02  7.888446e-03  1.056338e-01
       21    -1     0     0   101   102  0.0000000000e+00  0.0000000000e+00  2.1411214679e+03  2.1411214679e+03  0.0000000000e+00 0. 9.
       21    -1     0     0   102   103  0.0000000000e+00  0.0000000000e+00 -5.1729060303e+01  5.1729060303e+01  0.0000000000e+00 0. 9.
        6     2     1     2   101     0 -9.9084042854e+01 -4.0198563715e+01  1.9175959085e+03  1.9281904436e+03  1.7120381520e+02  1.404211e-13 9.
       -6     2     1     2     0   103  9.9084042854e+01  4.0198563715e+01  1.7179649914e+02  2.6466008467e+02  1.7057945723e+02  1.416355e-15 9.
       24     2     3     0     0     0 -1.1085762129e+02 -7.6775509647e+01  1.3136558578e+03  1.3230102101e+03  8.0501007969e+01  4.719628e-14 9.
        5     1     3     0   101     0  1.1773578439e+01  3.6576945932e+01  6.0394005068e+02  6.0518023343e+02  4.8000000000e+00 0. 9.
      -24     2     4     0     0     0  5.5014954036e+01  9.0231204672e+01  1.2393716227e+02  1.8244751947e+02  8.2209255602e+01  1.294780e-13 9.
       -5     1     4     0     0   103  4.4069088818e+01 -5.0032640958e+01  4.7859336877e+01  8.2212565200e+01  4.8000000000e+00 0. 9.
       -3     1     5     0     0   104 -2.3394239194e+01 -6.2801081846e+01  6.5612528143e+02  6.5953915823e+02  5.0000000000e-01 0. 9.
        4     1     5     0   104     0 -8.7463382100e+01 -1.3974427801e+01  6.5753057639e+02  6.6347105191e+02  1.5000000000e+00 0. 9.
       13     1     7     0     0     0  1.4381219708e+01  3.1172433052e+01 -5.2247627221e+00  3.4725341931e+01  1.0566000000e-01  7.024261e+05 9.
      -14     1     7     0     0     0  4.0633734327e+01  5.9058771621e+01  1.2916192499e+02  1.4772217754e+02  0.0000000000e+00 0. 9.
#pdf   21   21  3.294033e-01  7.958317e-03  2.013229e+02  7.512550e-02  9.646262e+00
</event>
<event>
    12  9999  1.000000e+00  1.971837e+02  7.886453e-03  1.059174e-01
       21    -1     0     0   101   102  0.0000000000e+00  0.0000000000e+00  3.7553490277e+02  3.7553490277e+02  0.0000000000e+00 0. 9.
       21    -1     0     0   102   103  0.0000000000e+00  0.0000000000e+00 -1.6430510557e+02  1.6430510557e+02  0.0000000000e+00 0. 9.
        6     2     1     2   101     0  7.7101368532e+01  6.1948611570e+01  2.6974307937e+02  3.3408517928e+02  1.7049729217e+02  2.577915e-13 9.
       -6     2     1     2     0   103 -7.7101368532e+01 -6.1948611570e+01 -5.8513282173e+01  2.0575482907e+02  1.7067218282e+02  4.942716e-14 9.
       24     2     3     0     0     0  9.5523073089e+01  2.1572144495e+01  2.5915364320e+02  2.8820714040e+02  7.9452690855e+01  1.389494e-13 9.
        5     1     3     0   101     0 -1.8421704557e+01  4.0376467075e+01  1.0589436172e+01  4.5878038872e+01  4.8000000000e+00 0. 9.
      -24     2     4     0     0     0 -4.6217789183e+01 -1.0466402141e+02 -2.2477202538e+01  1.4172326852e+02  8.0558170234e+01  1.248696e-13 9.
       -5     1     4     0     0   103 -3.0883579349e+01  4.2715409839e+01 -3.6036079635e+01  6.4031560551e+01  4.8000000000e+00 0. 9.
      -11     1     5     0     0     0  5.5285954837e+01 -2.0893842277e+01  7.8135958085e+01  9.7971002820e+01  5.1100000000e-04 0. 9.
       12     1     5     0     0     0  4.0237118252e+01  4.2465986772e+01  1.8101768512e+02  1.9023613758e+02  0.0000000000e+00 0. 9.
        3     1     7     0   104     0 -1.2548360176e+01 -3.9845316079e+01  3.0289922878e+01  5.1602712957e+01  5.0000000000e-01 0. 9.
       -4     1     7     0     0   104 -3.3669429008e+01 -6.4818705329e+01 -5.2767125416e+01  9.0120555563e+01  1.5000000000e+00 0. 9.
#pdf   21   21  5.777460e-02  2.527771e-02  1.971080e+02  1.620647e+00  3.746452e+00
</event>
<event>
    12  9999  1.000000e+00  1.744719e+02  7.875433e-03  1.075172e-01
       21    -1     0     0   101   102  0.0000000000e+00  0.0000000000e+00  6.1824253818e+01  6.1824253818e+01  0.0000000000e+00 0. 9.
       21    -1     0     0   103   101  0.0000000000e+00  0.0000000000e+00 -5.3476397579e+02  5.3476397579e+02  0.0000000000e+00 0. 9.
        6     2     1     2   103     0 -2.9390878672e+01  1.8551187654e+01 -1.5153094533e+02  2.3050862226e+02  1.7018997395e+02  2.032326e-13 9.
       -6     2     1     2     0   102  2.9390878672e+01 -1.8551187654e+01 -3.2140877664e+02  3.6607960734e+02  1.7176352028e+02  8.144666e-14 9.
       24     2     3     0     0     0 -1.0385058252e+00 -3.9061994378e+01 -1.3929615763e+02  1.6496576743e+02  7.9267691983e+01  1.775659e-13 9.
        5     1     3     0   103     0 -2.8352372847e+01  5.7613182032e+01 -1.2234787699e+01  6.5542854835e+01  4.8000000000e+00 0. 9.
      -24     2     4     0     0     0  6.7653699803e+01 -5.7096271905e+01 -2.0280080219e+02  2.3553973373e+02  8.0708075393e+01  9.543196e-14 9.
       -5     1     4     0     0   102 -3.8262821131e+01  3.8545084251e+01 -1.1860797445e+02  1.3053987362e+02  4.8000000000e+00 0. 9.
       -1     1     5     0     0   104 -3.1574593521e+01 -1.8343476449e+00 -2.3036178552e+01  3.9129198938e+01  3.3000000000e-01 0. 9.
        2     1     5     0   104     0  3.0536087696e+01 -3.7227646733e+01 -1.1625997908e+02  1.2583656849e+02  3.3000000000e-01 0. 9.
        1     1     7     0   105     0 -1.0181973552e+00 -5.0032590977e+01 -9.8113815515e+01  1.1013957772e+02  3.3000000000e-01 0. 9.
       -2     1     7     0     0   105  6.8671897158e+01 -7.0636809280e+00 -1.0468698667e+02  1.2540015600e+02  3.3000000000e-01 0. 9.
#pdf   21   21  9.511424e-03  8.227138e-02  1.737026e+02  8.416405e+00  1.071844e+00
</event>
<event>
    12  9999  1.000000e+00  1.958810e+02  7.885856e-03  1.060028e-01
       21    -1     0     0   101   102  0.0000000000e+00  0.0000000000e+00  2.5420674904e+02  2.5420674904e+02  0.0000000000e+00 0. 9.
       21    -1     0     0   102   103  0.0000000000e+00  0.0000000000e+00 -4.6212748249e+02  4.6212748249e+02  0.0000000000e+00 0. 9.
        6     2     1     2   101     0  6.5490389976e+01  7.2929140139e+01  1.8964963741e+02  2.7387002300e+02  1.7155218993e+02  6.924313e-14 9.
       -6     2     1     2     0   103 -6.5490389976e+01 -7.2929140139e+01 -3.9757037086e+02  4.4246420852e+02  1.6764464015e+02  4.246960e-13 9.
       24     2     3     0     0     0  2.2339178670e+01  1.0880734900e+02  1.0582250241e+02  1.7287843192e+02  7.9689849455e+01  4.492387e-14 9.
        5     1     3     0   101     0  4.3151211306e+01 -3.5878208857e+01  8.3827134998e+01  1.0099159109e+02  4.8000000000e+00 0. 9.
      -24     2     4     0     0     0 -1.2240329996e+01  3.1783921655e+00 -8.8289715819e+01  1.1950060539e+02  7.9532338796e+01  1.115104e-13 9.
       -5     1     4     0     0   103 -5.3250059980e+01 -7.6107532305e+01 -3.0928065504e+02  3.2296360313e+02  4.8000000000e+00 0. 9.
      -13     1     5     0     0     0  4.3973203396e+01  2.9312486797e+01  5.3954971397e+01  7.5524927021e+01  1.0566000000e-01  5.796701e+04 9.
       14     1     5     0     0     0 -2.1634024726e+01  7.9494862199e+01  5.1867531016e+01  9.7353504896e+01  0.0000000000e+00 0. 9.
       13     1     7     0     0     0  5.5419503230e+00 -3.6473088972e+01 -3.6538761278e+01  5.1923902707e+01  1.0566000000e-01  4.227033e+05 9.
      -14     1     7     0     0     0 -1.7782280319e+01  3.9651481138e+01 -5.1750954541e+01  6.7576702684e+01  0.0000000000e+00 0. 9.
#pdf   21   21  3.910873e-02  7.109654e-02  1.941967e+02  2.464380e+00  1.272123e+00
</event>
<event>
    12  9999  1.000000e+00  1.806616e+02  7.878569e-03  1.070565e-01
       21    -1     0     0   101   102  0.0000000000e+00  0.0000000000e+00  7.0374496841e+02  7.0374496841e+02  0.0000000000e+00 0. 9.
       21    -1     0     0   103   101  0.0000000000e+00  0.0000000000e+00 -9.2357160560e+01  9.2357160560e+01  0.0000000000e+00 0. 9.
        6     2     1     2   103     0 -1.3475080179e+01 -5.6778645585e+01  2.4583032031e+01  1.8202741073e+02  1.7065831481e+02  4.177222e-14 9.
       -6     2     1     2     0   102  1.3475080179e+01  5.6778645585e+01  5.8680477582e+02  6.1407471824e+02  1.7129659154e+02  1.387080e-13 9.
       24     2     3     0     0     0 -4.8614874331e+01 -9.1098627146e+01  2.2620203598e+01  1.3263551906e+02  8.0113303713e+01  1.204172e-13 9.
        5     1     3     0   103     0  3.5139794152e+01  3.4319981561e+01  1.9628284324e+00  4.9391891672e+01  4.8000000000e+00 0. 9.
      -24     2     4     0     0     0 -1.1833519353e+01 -3.0698772156e+01  2.3742204028e+02  2.5298725000e+02  8.0937486121e+01  8.371970e-14 9.
       -5     1     4     0     0   102  2.5308599532e+01  8.7477417741e+01  3.4938273554e+02  3.6108746824e+02  4.8000000000e+00 0. 9.
       -1     1     5     0     0   104 -1.2977430327e+01 -6.5648452230e+01  4.7690140832e+01  8.2174152935e+01  3.3000000000e-01 0. 9.
        2     1     5     0   104     0 -3.5637444004e+01 -2.5450174917e+01 -2.5069937234e+01  5.0461366126e+01  3.3000000000e-01 0. 9.
        1     1     7     0   105     0  7.1360659631e+00 -4.7851834954e+01  2.0994744964e+02  2.1545013821e+02  3.3000000000e-01 0. 9.
       -2     1     7     0     0   105 -1.8969585316e+01  1.7153062798e+01  2.7474590639e+01  3.7537111785e+01  3.3000000000e-01 0. 9.
#pdf   21   21  1.082685e-01  1.420879e-02  1.803598e+02  7.404687e-01  6.151167e+00
</event>
<event>
    12  9999  1.000000e+00  1.999610e+02  7.887715e-03  1.057376e-01
       21    -1     0     0   101   102  0.0000000000e+00  0.0000000000e+00  1.9187753614e+02  1.9187753614e+02  0.0000000000e+00 0. 9.
       21    -1     0     0   102   103  0.0000000000e+00  0.0000000000e+00 -3.4613693374e+02  3.4613693374e+02  0.0000000000e+00 0. 9.
        6     2     1     2   101     0 -1.0252245023e+02 -1.7397934423e+01  9.2615703945e+01  2.2020099424e+02  1.7057921422e+02  1.450443e-13 9.
       -6     2     1     2     0   103  1.0252245023e+02  1.7397934423e+01 -2.4687510154e+02  3.1781347564e+02  1.7101037575e+02  1.552170e-13 9.
       24     2     3     0     0     0 -1.0472339220e+02 -2.3831335527e+01  1.2658839036e+02  1.8522362702e+02  8.2147732823e+01  8.810705e-14 9.
        5     1     3     0   101     0  2.2009419651e+00  6.4334011042e+00 -3.3972686413e+01  3.4977367217e+01  4.8000000000e+00 0. 9.
      -24     2     4     0     0     0  1.2504272596e+02 -1.3767753620e-01 -2.4721578211e+02  2.8886841442e+02  8.1814519835e+01  1.774827e-13 9.
       -5     1     4     0     0   103 -2.2520275725e+01  1.7535611959e+01  3.4068057710e-01  2.8945061215e+01  4.8000000000e+00 0. 9.
       -1     1     5     0     0   104  3.3279910508e+00  1.7034375347e+01  2.9921363734e+01  3.4592519069e+01  3.3000000000e-01 0. 9.
        2     1     5     0   104     0 -1.0805138325e+02 -4.0865710874e+01  9.6667026625e+01  1.5063110795e+02  3.3000000000e-01 0. 9.
        3     1     7     0   105     0  2.1945144461e+00  7.7975455429e-01  6.5259469903e+00  6.9470781584e+00  5.0000000000e-01 0. 9.
       -4     1     7     0     0   105  1.2284821151e+02 -9.1743209048e-01 -2.5374172910e+02  2.8192133627e+02  1.5000000000e+00 0. 9.
#pdf   21   21  2.951962e-02  5.325184e-02  1.997769e+02  3.241916e+00  1.773970e+00
</event>
<event>
    12  9999  1.000000e+00  2.388200e+02  7.903768e-03  1.035075e-01
       -2    -1     0     0     0   101  0.0000000000e+00  0.0000000000e+00  1.2471342127e+02  1.2471342127e+02  0.0000000000e+00 0. 9.
        2    -1     0     0   102     0  0.0000000000e+00  0.0000000000e+00 -5.0199800397e+02  5.0199800397e+02  0.0000000000e+00 0. 9.
       -6     2     1     2     0   101 -5.9172935617e+01  1.5582356609e+02 -9.5087536483e+01  2.5694975192e+02  1.7087748640e+02  2.096053e-14 9.
        6     2     1     2   102     0  5.9172935617e+01 -1.5582356609e+02 -2.8219704621e+02  3.6976167332e+02  1.7119025121e+02  6.541371e-14 9.
      -24     2     3     0     0     0 -1.0191940745e+02  1.3240615199e+02 -5.4097891177e+01  1.9308405565e+02  8.0224161066e+01  1.495869e-13 9.
       -5     1     3     0     0   101  4.2746471831e+01  2.3417414106e+01 -4.0989645306e+01  6.3865696268e+01  4.8000000000e+00 0. 9.
       24     2     4     0     0     0  5.4745635173e+01 -1.5832961493e+02 -2.9902003818e+02  3.5154260834e+02  7.8127272548e+01  9.561790e-14 9.
        5     1     4     0   102     0  4.4273004437e+00  2.5060488387e+00  1.6822991965e+01  1.8219064977e+01  4.8000000000e+00 0. 9.
        3     1     5     0   103     0 -1.4093288096e+01  5.0446928266e+01  1.5008442910e+01  5.4488684141e+01  5.0000000000e-01 0. 9.
       -4     1     5     0     0   103 -8.7826119352e+01  8.1959223719e+01 -6.9106334086e+01  1.3859537151e+02  1.5000000000e+00 0. 9.
      -13     1     7     0     0     0 -6.4427813933e+00 -9.9029135913e+01 -1.4928513100e+02  1.7926053858e+02  1.0566000000e-01  2.600960e+04 9.
       14     1     7     0     0     0  6.1188416566e+01 -5.9300479017e+01 -1.4973490718e+02  1.7228206976e+02  0.0000000000e+00 0. 9.
#pdf   -2    2  1.918668e-02  7.723046e-02  2.387081e+02  3.465431e-01  5.973542e-01
</event>
<event>
    12  9999  1.000000e+00  2.695180e+02  7.914737e-03  1.020428e-01
       21    -1     0     0   101   102  0.0000000000e+00  0.0000000000e+00  1.1689897089e+03  1.1689897089e+03  0.0000000000e+00 0. 9.
       21    -1     0     0   102   103  0.0000000000e+00  0.0000000000e+00 -6.2686932655e+01  6.2686932655e+01  0.0000000000e+00 0. 9.
        6     2     1     2   101     0  8.9538751971e+01  1.8727154143e+02  6.0916536773e+02  6.6582109892e+02  1.7072630783e+02  5.025381e-13 9.
       -6     2     1     2     0   103 -8.9538751971e+01 -1.8727154143e+02  4.9713740851e+02  5.6585554264e+02  1.7308689683e+02  6.490951e-14 9.
       24     2     3     0     0     0  1.0643921947e+02  2.0418976098e+02  5.5366688014e+02  6.0519953444e+02  8.1833345250e+01  9.231948e-14 9.
        5     1     3     0   101     0 -1.6900467497e+01 -1.6918219550e+01  5.5498487589e+01  6.0621564472e+01  4.8000000000e+00 0. 9.
      -24     2     4     0     0     0 -1.8296423875e+01 -7.8473811852e+01  3.5728978164e+02  3.7482461839e+02  7.9653049025e+01  1.197166e-13 9.
       -5     1     4     0     0   103 -7.1242328096e+01 -1.0879772958e+02  1.3984762688e+02  1.9103092424e+02  4.8000000000e+00 0. 9.
       -3     1     5     0     0   104  8.7892915244e+01  1.2893642194e+02  2.7756445230e+02  3.1842116863e+02  5.0000000000e-01 0. 9.
        4     1     5     0   104     0  1.8546304224e+01  7.5253339042e+01  2.7610242784e+02  2.8677836581e+02  1.5000000000e+00 0. 9.
       11     1     7     0     0     0  2.9083010866e+01 -5.0460297193e+01  1.8018811458e+02  1.8936689191e+02  5.1100000000e-04 0. 9.
      -12     1     7     0     0     0 -4.7379434741e+01 -2.8013514659e+01  1.7710166705e+02  1.8545772648e+02  0.0000000000e+00 0. 9.
#pdf   21   21  1.798446e-01  9.644143e-03  2.687662e+02  3.110889e-01  8.368624e+00
</event>
<event>
    12  9999  1.000000e+00  2.822765e+02  7.918940e-03  1.014935e-01
       21    -1     0     0   101   102  0.0000000000e+00  0.0000000000e+00  1.0880326230e+02  1.0880326230e+02  0.0000000000e+00 0. 9.
       21    -1     0     0   103   101  0.0000000000e+00  0.0000000000e+00 -1.2382498999e+03  1.2382498999e+03  0.0000000000e+00 0. 9.
        6     2     1     2   103     0 -1.5167437733e+02  1.6650982371e+02 -9.9460753265e+02  1.0337423343e+03  1.6925847585e+02  2.816033e-14 9.
       -6     2     1     2     0   102  1.5167437733e+02 -1.6650982371e+02 -1.3483910496e+02  3.1331082789e+02  1.7103056019e+02  6.749172e-15 9.
       24     2     3     0     0     0 -1.7679601352e+02  1.2809489070e+02 -8.7864355630e+02  9.0893252905e+02  8.0490446109e+01  9.932658e-14 9.
        5     1     3     0   103     0  2.5121636190e+01  3.8414933004e+01 -1.1596397635e+02  1.2480980527e+02  4.8000000000e+00 0. 9.
      -24     2     4     0     0     0  7.6487176100e+01 -6.6794597845e+01 -1.3656251215e+02  1.8832182185e+02  8.0647271826e+01  2.510360e-14 9.
       -5     1     4     0     0   102  7.5187201229e+01 -9.9715225861e+01  1.7234071892e+00  1.2498900603e+02  4.8000000000e+00 0. 9.
      -13     1     5     0     0     0 -1.5081677362e+02  9.5032405286e+01 -5.6423163340e+02  5.9172139099e+02  1.0566000000e-01  6.731881e+02 9.
       14     1     5     0     0     0 -2.5979239897e+01  3.3062485416e+01 -3.1441192290e+02  3.1721113806e+02  0.0000000000e+00 0. 9.
       11     1     7     0     0     0  5.1535112348e+01  4.7873238666e+00 -3.9190915009e+01  6.4920829431e+01  5.1100000000e-04 0. 9.
      -12     1     7     0     0     0  2.4952063752e+01 -7.1581921711e+01 -9.7371597141e+01  1.2340099242e+02  0.0000000000e+00 0. 9.
#pdf   21   21  1.673896e-02  1.905000e-01  2.817429e+02  5.345257e+00  2.767768e-01
</event>
<event>
    12  9999  1.000000e+00  2.639761e+02  7.912850e-03  1.022914e-01
       21    -1     0     0   101   102  0.0000000000e+00  0.0000000000e+00  3.1692036438e+02  3.1692036438e+02  0.0000000000e+00 0. 9.
       21    -1     0     0   102   103  0.0000000000e+00  0.0000000000e+00 -2.5460427894e+02  2.5460427894e+02  0.0000000000e+00 0. 9.
        6     2     1     2   101     0  1.5833874227e+02  1.2380630561e+02  1.3673612977e+02  2.9764408872e+02  1.7174421608e+02  4.349667e-14 9.
       -6     2     1     2     0   103 -1.5833874227e+02 -1.2380630561e+02 -7.4420044337e+01  2.7388055460e+02  1.7050823023e+02  1.566694e-14 9.
       24     2     3     0     0     0  1.1918772292e+02  1.0896861996e+02  1.6752064968e+02  2.4545514452e+02  7.8135692681e+01  3.388105e-13 9.
        5     1     3     0   101     0  3.9151019350e+01  1.4837685647e+01 -3.0784519907e+01  5.2188944206e+01  4.8000000000e+00 0. 9.
      -24     2     4     0     0     0 -1.3250366072e+02 -1.3900744689e+02 -1.0112601269e+02  2.3344820516e+02  8.5972691347e+01  6.059166e-14 9.
       -5     1     4     0     0   103 -2.5835081552e+01  1.5201141277e+01  2.6705968355e+01  4.0432349433e+01  4.8000000000e+00 0. 9.
       -1     1     5     0     0   104  3.6582059065e+00 -3.2663412275e+00 -6.6195693571e+00  8.2449411121e+00  3.3000000000e-01 0. 9.
        2     1     5     0   104     0  1.1552951702e+02  1.1223496119e+02  1.7414021903e+02  2.3721020341e+02  3.3000000000e-01 0. 9.
        3     1     7     0   105     0 -5.8567891366e+00  1.0817326670e+01  8.5148288271e-01  1.2340646595e+01  5.0000000000e-01 0. 9.
       -4     1     7     0     0   105 -1.2664687158e+02 -1.4982477356e+02 -1.0197749558e+02  2.2110755857e+02  1.5000000000e+00 0. 9.
#pdf   21   21  4.875698e-02  3.916989e-02  2.635758e+02  1.919457e+00  2.421533e+00
</event>
<event>
    12  9999  1.000000e+00  2.358408e+02  7.902631e-03  1.036620e-01
       21    -1     0     0   101   102  0.0000000000e+00  0.0000000000e+00  4.7689099260e+01  4.7689099260e+01  0.0000000000e+00 0. 9.
       21    -1     0     0   103   101  0.0000000000e+00  0.0000000000e+00 -1.2484450519e+03  1.2484450519e+03  0.0000000000e+00 0. 9.
        6     2     1     2   103     0  1.6167777336e+02  1.3779433194e+01 -4.3488429713e+02  4.9486128699e+02  1.7156271824e+02  4.346878e-14 9.
       -6     2     1     2     0   102 -1.6167777336e+02 -1.3779433194e+01 -7.6587165554e+02  8.0127286420e+02  1.7073147035e+02  1.112162e-14 9.
       24     2     3     0     0     0  1.6745743832e+02  5.5385643087e+01 -3.6563886463e+02  4.1372898054e+02  7.9814327640e+01  3.979253e-14 9.
        5     1     3     0   103     0 -5.7796649522e+00 -4.1606209893e+01 -6.9245432496e+01  8.1132306452e+01  4.8000000000e+00 0. 9.
      -24     2     4     0     0     0 -1.4443024736e+02 -1.0473178642e+01 -7.6512599313e+02  7.8305187397e+02  8.2356955640e+01  3.533232e-13 9.
       -5     1     4     0     0   102 -1.7247526007e+01 -3.3062545518e+00 -7.4566240695e-01  1.8220990230e+01  4.8000000000e+00 0. 9.
       -3     1     5     0     0   104  9.1818497553e+01  6.6200863209e+01 -1.7587300927e+02  2.0915247111e+02  5.0000000000e-01 0. 9.
        4     1     5     0   104     0  7.5638940764e+01 -1.0815220122e+01 -1.8976585536e+02  2.0457650942e+02  1.5000000000e+00 0. 9.
        1     1     7     0   105     0 -4.4556793599e+01 -7.3925270932e+00 -9.1342616874e+01  1.0189965589e+02  3.3000000000e-01 0. 9.
       -2     1     7     0     0   105 -9.9873453759e+01 -3.0806515487e+00 -6.7378337626e+02  6.8115221808e+02  3.3000000000e-01 0. 9.
#pdf   21   21  7.336785e-03  1.920685e-01  2.355394e+02  1.027518e+01  2.806283e-01
</event>
<event>
    12  9999  1.000000e+00  3.284021e+02  7.932727e-03  9.973747e-02
       21    -1     0     0   101   102  0.0000000000e+00  0.0000000000e+00  2.5525899550e+02  2.5525899550e+02  0.0000000000e+00 0. 9.
       21    -1     0     0   102   103  0.0000000000e+00  0.0000000000e+00 -1.0122784365e+03  1.0122784365e+03  0.0000000000e+00 0. 9.
        6     2     1     2   101     0 -1.4016343095e+02 -2.4304888380e+02  1.0497091683e+02  3.4530913088e+02  1.7175842104e+02  1.830128e-13 9.
       -6     2     1     2     0   103  1.4016343095e+02  2.4304888380e+02 -8.6199035786e+02  9.2222830114e+02  1.6958512638e+02  8.755028e-14 9.
       24     2     3     0     0     0 -1.6811117667e+02 -1.7671482225e+02  7.6278733103e+01  2.6767173255e+02  7.9625468014e+01  9.452271e-14 9.
        5     1     3     0   101     0  2.7947745725e+01 -6.6334061558e+01  2.8692183728e+01  7.7637398340e+01  4.8000000000e+00 0. 9.
      -24     2     4     0     0     0  4.5741280019e+01  5.3778533235e+01 -4.0294500419e+02  4.1677357032e+02  7.9694022207e+01  4.716087e-14 9.
       -5     1     4     0     0   103  9.4422150929e+01  1.8927035057e+02 -4.5904535367e+02  5.0545473082e+02  4.8000000000e+00 0. 9.
       -3     1     5     0     0   104 -3.6000230756e+00 -4.1722675009e+01  8.5593571397e-01  4.1889430672e+01  5.0000000000e-01 0. 9.
        4     1     5     0   104     0 -1.6451115360e+02 -1.3499214724e+02  7.5422797389e+01  2.2578230187e+02  1.5000000000e+00 0. 9.
       11     1     7     0     0     0  6.5777794655e+01  2.3014775621e+01 -2.5679079372e+02  2.6607876636e+02  5.1100000000e-04 0. 9.
      -12     1     7     0     0     0 -2.0036514637e+01  3.0763757613e+01 -1.4615421047e+02  1.5069480396e+02  0.0000000000e+00 0. 9.
#pdf   21   21  3.927061e-02  1.557351e-01  3.278379e+02  2.387719e+00  3.908635e-01
</event>
<event>
    12  9999  1.000000e+00  2.751145e+02  7.916604e-03  1.017980e-01
       21    -1     0     0   101   102  0.0000000000e+00  0.0000000000e+00  3.9484829467e+02  3.9484829467e+02  0.0000000000e+00 0. 9.
       21    -1     0     0   103   101  0.0000000000e+00  0.0000000000e+00 -2.0309599064e+02  2.0309599064e+02  0.0000000000e+00 0. 9.
        6     2     1     2   103     0  1.6800158133e+02 -1.3385460620e+02  1.6695990650e+02  3.2241923104e+02  1.7302301360e+02  1.546132e-13 9.
       -6     2     1     2     0   102 -1.6800158133e+02  1.3385460620e+02  2.4792397527e+01  2.7552505427e+02  1.7075656831e+02  3.035549e-14 9.
       24     2     3     0     0     0  2.4905623739e+01 -2.6327624815e+01  1.0039479886e+02  1.3138923768e+02  7.6619724742e+01  5.759302e-14 9.
        5     1     3     0   103     0  1.4309595760e+02 -1.0752698139e+02  6.6565107640e+01  1.9102999336e+02  4.8000000000e+00 0. 9.
      -24     2     4     0     0     0 -1.4915231041e+02  3.9524499793e+01  5.1118116177e+01  1.7567743310e+02  6.6640084893e+01  1.316004e-13 9.
       -5     1     4     0     0   102 -1.8849270922e+01  9.4330106411e+01 -2.6325718650e+01  9.9847621164e+01  4.8000000000e+00 0. 9.
       -3     1     5     0     0   104  2.7875864144e+01  4.7825643581e+00  9.5648328940e+01  9.9743619107e+01  5.0000000000e-01 0. 9.
        4     1     5     0   104     0 -2.9702404056e+00 -3.1110189174e+01  4.7464699172e+00  3.1645618578e+01  1.5000000000e+00 0. 9.
        1     1     7     0   105     0 -9.7831167462e+00 -1.0089944767e+01 -8.2183389208e+00  1.6283929295e+01  3.3000000000e-01 0. 9.
       -2     1     7     0     0   105 -1.3936919367e+02  4.9614444561e+01  5.9336455098e+01  1.5939350381e+02  3.3000000000e-01 0. 9.
#pdf   21   21  6.074589e-02  3.124554e-02  2.744073e+02  1.492837e+00  3.030655e+00
</event>
<event>
    12  9999  1.000000e+00  1.754917e+02  7.875957e-03  1.074399e-01
       21    -1     0     0   101   102  0.0000000000e+00  0.0000000000e+00  4.5101434464e+01  4.5101434464e+01  0.0000000000e+00 0. 9.
       21    -1     0     0   103   101  0.0000000000e+00  0.0000000000e+00 -6.9671619309e+02  6.9671619309e+02  0.0000000000e+00 0. 9.
        6     2     1     2   103     0 -1.5495668886e+01  5.0756097505e+00 -2.8378569279e+02  3.3639145154e+02  1.7988610750e+02  4.948475e-13 9.
       -6     2     1     2     0   102  1.5495668886e+01 -5.0756097505e+00 -3.6782906584e+02  4.0542617601e+02  1.6972414369e+02  5.171816e-14 9.
       24     2     3     0     0     0 -6.0099962342e+01  1.9940822681e+01 -9.4106897126e+01  1.4091356769e+02  8.3611503938e+01  8.735265e-14 9.
        5     1     3     0   103     0  4.4604293456e+01 -1.4865212931e+01 -1.8967879566e+02  1.9547788385e+02  4.8000000000e+00 0. 9.
      -24     2     4     0     0     0 -2.5073546171e+01 -1.2556046299e+01 -3.5102769592e+02  3.6062501339e+02  7.7740722672e+01  1.478938e-13 9.
       -5     1     4     0     0   102  4.0569215057e+01  7.4804365485e+00 -1.6801369919e+01  4.4801162624e+01  4.8000000000e+00 0. 9.
      -15     1     5     0     0     0 -9.8553741543e+00  4.6472268377e+01 -4.9924395616e+01  6.8937671086e+01  1.7768200000e+00  1.368475e-01 9.
       16     1     5     0     0     0 -5.0244588188e+01 -2.6531445696e+01 -4.4182501510e+01  7.1975896608e+01  0.0000000000e+00 0. 9.
       11     1     7     0     0     0 -3.5132673500e+01  2.3544693013e+01 -1.3832082172e+02  1.4464199611e+02  5.1100000000e-04 0. 9.
      -12     1     7     0     0     0  1.0059127329e+01 -3.6100739312e+01 -2.1270687420e+02  2.1598301728e+02  0.0000000000e+00 0. 9.
#pdf   21   21  6.938682e-03  1.071871e-01  1.705056e+02  1.061763e+01  7.554886e-01
</event>
<event>
    12  9999  1.000000e+00  1.948562e+02  7.885383e-03  1.060705e-01
       21    -1     0     0   101   102  0.0000000000e+00  0.0000000000e+00  2.0353305014e+02  2.0353305014e+02  0.0000000000e+00 0. 9.
       21    -1     0     0   103   101  0.0000000000e+00  0.0000000000e+00 -1.9279158765e+02  1.9279158765e+02  0.0000000000e+00 0. 9.
        6     2     1     2   103     0  8.8898445518e+01  2.5586030297e+01  4.1019732021e+01  1.9885283566e+02  1.7117900944e+02  3.104078e-14 9.
       -6     2     1     2     0   102 -8.8898445518e+01 -2.5586030297e+01 -3.0278269536e+01  1.9747180213e+02  1.7181606581e+02  6.413311e-14 9.
       24     2     3     0     0     0  1.0563648174e+02 -2.2013349431e+01  5.5945433826e+01  1.4601649039e+02  8.0915202974e+01  6.676567e-14 9.
        5     1     3     0   103     0 -1.6738036220e+01  4.7599379728e+01 -1.4925701805e+01  5.2836345269e+01  4.8000000000e+00 0. 9.
      -24     2     4     0     0     0 -1.2939746745e+02 -2.2355740626e+01 -1.8301352832e+01  1.5484443906e+02  7.9989856034e+01  3.791070e-13 9.
       -5     1     4     0     0   102  4.0499021936e+01 -3.2302896709e+00 -1.1976916703e+01  4.2627363077e+01  4.8000000000e+00 0. 9.
      -11     1     5     0     0     0 -9.9605295784e+00  1.0192291537e+01  1.7909531569e+00  1.4363233262e+01  5.1100000000e-04 0. 9.
       12     1     5     0     0     0  1.1559701132e+02 -3.2205640968e+01  5.4154480669e+01  1.3165325713e+02  0.0000000000e+00 0. 9.
        3     1     7     0   104     0 -7.5766335264e+01 -9.6660363960e+00 -4.9958920317e+01  9.1269455669e+01  5.0000000000e-01 0. 9.
       -4     1     7     0     0   104 -5.3631132191e+01 -1.2689704230e+01  3.1657567485e+01  6.3574983386e+01  1.5000000000e+00 0. 9.
#pdf   21   21  3.131278e-02  2.966024e-02  1.945760e+02  3.067833e+00  3.230515e+00
</event>
<event>
    12  9999  1.000000e+00  2.188399e+02  7.895862e-03  1.045927e-01
       21    -1     0     0   101   102  0.0000000000e+00  0.0000000000e+00  5.6321727182e+02  5.6321727182e+02  0.0000000000e+00 0. 9.
       21    -1     0     0   103   101  0.0000000000e+00  0.0000000000e+00 -1.1147849583e+02  1.1147849583e+02  0.0000000000e+00 0. 9.
        6     2     1     2   103     0  9.0680982034e+01 -1.0313126654e+02  6.1631152244e+01  2.2744570908e+02  1.7051115216e+02  1.553595e-13 9.
       -6     2     1     2     0   102 -9.0680982034e+01  1.0313126654e+02  3.9010762374e+02  4.4725005857e+02  1.7026320257e+02  6.809313e-14 9.
       24     2     3     0     0     0  1.2354721093e+02 -8.0028788917e+01  7.6279034918e+01  1.8441648714e+02  8.0761557539e+01  1.718060e-13 9.
        5     1     3     0   103     0 -3.2866228896e+01 -2.3102477626e+01 -1.4647882674e+01  4.3029221944e+01  4.8000000000e+00 0. 9.
      -24     2     4     0     0     0 -5.5229610394e+00  1.0647261875e+02  2.2907486209e+02  2.6499297778e+02  7.9869043985e+01  6.758378e-14 9.
       -5     1     4     0     0   102 -8.5158020995e+01 -3.3413522065e+00  1.6103276164e+02  1.8225708079e+02  4.8000000000e+00 0. 9.
       -3     1     5     0     0   104  8.4328992367e+01 -1.4171004954e+01  6.3917702740e+01  1.0676103717e+02  5.0000000000e-01 0. 9.
        4     1     5     0   104     0  3.9218218562e+01 -6.5857783963e+01  1.2361332178e+01  7.7655449962e+01  1.5000000000e+00 0. 9.
        1     1     7     0   105     0 -2.5700250956e+01  1.0721602728e+02  1.7056890039e+02  2.0310006914e+02  3.3000000000e-01 0. 9.
       -2     1     7     0     0   105  2.0177289916e+01 -7.4340853407e-01  5.8505961703e+01  6.1892908636e+01  3.3000000000e-01 0. 9.
#pdf   21   21  8.664881e-02  1.715054e-02  2.187434e+02  9.815474e-01  5.255655e+00
</event>
<event>
    12  9999  1.000000e+00  2.269254e+02  7.899143e-03  1.041393e-01
       21    -1     0     0   101   102  0.0000000000e+00  0.0000000000e+00  2.2128271900e+02  2.2128271900e+02  0.0000000000e+00 0. 9.
       21    -1     0     0   102   103  0.0000000000e+00  0.0000000000e+00 -2.9779628004e+02  2.9779628004e+02  0.0000000000e+00 0. 9.
        6     2     1     2   101     0  1.4874390813e+02  3.5871049613e+00  8.3138325405e+01  2.4123095639e+02  1.7071255268e+02  1.600160e-13 9.
       -6     2     1     2     0   103 -1.4874390813e+02 -3.5871049613e+00 -1.5965188644e+02  2.7784804265e+02  1.7196857977e+02  3.537520e-13 9.
       24     2     3     0     0     0  7.0588485043e+01 -5.4017953637e+01  7.8918583487e+01  1.4393008714e+02  8.1160665533e+01  9.334165e-14 9.
        5     1     3     0   101     0  7.8155423087e+01  5.7605058599e+01  4.2197419178e+00  9.7300869245e+01  4.8000000000e+00 0. 9.
      -24     2     4     0     0     0 -1.3410576304e+02 -4.1049976233e+01 -6.3968991335e+01  1.7394424853e+02  8.0592267091e+01  2.873624e-14 9.
       -5     1     4     0     0   103 -1.4638145092e+01  3.7462871271e+01 -9.5682895108e+01  1.0390379412e+02  4.8000000000e+00 0. 9.
       -1     1     5     0     0   104  8.5146280080e+01 -3.5409972801e+01  4.5045552172e+01  1.0263023851e+02  3.3000000000e-01 0. 9.
        2     1     5     0   104     0 -1.4557795036e+01 -1.8607980836e+01  3.3873031315e+01  4.1299848639e+01  3.3000000000e-01 0. 9.
       11     1     7     0     0     0 -8.3730899315e+01  1.2115222778e+01 -1.5213585167e+01  8.5959847004e+01  5.1100000000e-04 0. 9.
      -12     1     7     0     0     0 -5.0374863723e+01 -5.3165199011e+01 -4.8755406168e+01  8.7984401524e+01  0.0000000000e+00 0. 9.
#pdf   21   21  3.404350e-02  4.581481e-02  2.264517e+02  2.809773e+00  2.072278e+00
</event>
<event>
    12  9999  1.000000e+00  1.855413e+02  7.880969e-03  1.067070e-01
       21    -1     0     0   101   102  0.0000000000e+00  0.0000000000e+00  4.6285817608e+02  4.6285817608e+02  0.0000000000e+00 0. 9.
       21    -1     0     0   103   101  0.0000000000e+00  0.0000000000e+00 -1.3010969949e+02  1.3010969949e+02  0.0000000000e+00 0. 9.
        6     2     1     2   103     0 -6.1114451121e+01 -3.9677764959e+01 -2.7712901276e+01  1.8752029333e+02  1.7054780663e+02  1.953753e-13 9.
       -6     2     1     2     0   102  6.1114451121e+01  3.9677764959e+01  3.6046137787e+02  4.0544758223e+02  1.7072210119e+02  3.153633e-14 9.
       24     2     3     0     0     0 -9.6115736731e+01 -6.5775388971e+01 -1.2415436704e+01  1.4100977414e+02  7.8517365547e+01  2.252462e-13 9.
        5     1     3     0   103     0  3.5001285610e+01  2.6097624012e+01 -1.5297464573e+01  4.6510519195e+01  4.8000000000e+00 0. 9.
      -24     2     4     0     0     0  7.6274611400e+01  7.3255037157e+01  3.3476836944e+02  3.6027641499e+02  8.0901898646e+01  1.994360e-13 9.
       -5     1     4     0     0   102 -1.5160160279e+01 -3.3577272198e+01  2.5693008421e+01  4.5171167238e+01  4.8000000000e+00 0. 9.
       -1     1     5     0     0   104 -7.8553926316e+00  1.7412729748e+01 -1.5829815718e-01  1.9106132758e+01  3.3000000000e-01 0. 9.
        2     1     5     0   104     0 -8.8260344100e+01 -8.3188118719e+01 -1.2257138547e+01  1.2190364138e+02  3.3000000000e-01 0. 9.
        1     1     7     0   105     0  1.2856731506e+01  4.5961264604e+01  5.8436204979e+01  7.5449535064e+01  3.3000000000e-01 0. 9.
       -2     1     7     0     0   105  6.3417879895e+01  2.7293772553e+01  2.7633216447e+02  2.8482687993e+02  3.3000000000e-01 0. 9.
#pdf   21   21  7.120895e-02  2.001688e-02  1.854612e+02  1.274453e+00  4.616327e+00
</event>
<event>
    12  9999  1.000000e+00  1.757377e+02  7.876083e-03  1.074214e-01
       21    -1     0     0   101   102  0.0000000000e+00  0.0000000000e+00  4.6871537091e+02  4.6871537091e+02  0.0000000000e+00 0. 9.
       21    -1     0     0   103   101  0.0000000000e+00  0.0000000000e+00 -9.1476052306e+01  9.1476052306e+01  0.0000000000e+00 0. 9.
        6     2     1     2   103     0 -3.7042423529e+01  1.4688917914e+01  4.0427139341e+01  1.8025311586e+02  1.7108163762e+02  2.901500e-14 9.
       -6     2     1     2     0   102  3.7042423529e+01 -1.4688917914e+01  3.3681217927e+02  3.7993830736e+02  1.7123892037e+02  2.857904e-14 9.
       24     2     3     0     0     0 -6.4247491806e+01  5.0968603918e+00 -2.6607208762e+01  1.0711784986e+02  8.1317722609e+01  2.070623e-13 9.
        5     1     3     0   103     0  2.7205068278e+01  9.5920575222e+00  6.7034348103e+01  7.3135266002e+01  4.8000000000e+00 0. 9.
      -24     2     4     0     0     0  5.6093087477e+01 -3.7608477467e+01  3.3395783620e+02  3.4961634698e+02  7.8376792955e+01  2.383573e-13 9.
       -5     1     4     0     0   102 -1.9050663948e+01  2.2919559553e+01  2.8543430606e+00  3.0321960380e+01  4.8000000000e+00 0. 9.
       -3     1     5     0     0   104 -1.9805252212e+01  2.4817266167e+01  2.1779517690e+01  3.8506390457e+01  5.0000000000e-01 0. 9.
        4     1     5     0   104     0 -4.4442239594e+01 -1.9720405776e+01 -4.8386726452e+01  6.8611459399e+01  1.5000000000e+00 0. 9.
        1     1     7     0   105     0  1.2393572420e+01  1.0428091524e+01  2.0094658423e+02  2.0159857228e+02  3.3000000000e-01 0. 9.
       -2     1     7     0     0   105  4.3699515057e+01 -4.8036568991e+01  1.3301125197e+02  1.4801777470e+02  3.3000000000e-01 0. 9.
#pdf   21   21  7.211006e-02  1.407324e-02  1.756611e+02  1.260681e+00  6.198830e+00
</event>
<event>
    12  9999  1.000000e+00  2.874800e+02  7.920602e-03  1.012783e-01
       21    -1     0     0   101   102  0.0000000000e+00  0.0000000000e+00  4.8023879037e+01  4.8023879037e+01  0.0000000000e+00 0. 9.
       21    -1     0     0   102   103  0.0000000000e+00  0.0000000000e+00 -1.8677582934e+03  1.8677582934e+03  0.0000000000e+00 0. 9.
        6     2     1     2   101     0 -2.3054379836e+02 -2.0977258095e+01 -6.4287583003e+02  7.0444929247e+02  1.7137381513e+02  1.063391e-13 9.
       -6     2     1     2     0   103  2.3054379836e+02  2.0977258095e+01 -1.1768585844e+03  1.2113328800e+03  1.6953091236e+02  6.927293e-14 9.
       24     2     3     0     0     0 -1.9831269628e+02 -3.3056896890e+01 -6.3193900536e+02  6.6801557528e+02  8.0481167893e+01  1.499801e-14 9.
        5     1     3     0   101     0 -3.2231102076e+01  1.2079638795e+01 -1.0936824665e+01  3.6433717189e+01  4.8000000000e+00 0. 9.
      -24     2     4     0     0     0  5.0351867752e+01 -1.3772741646e+01 -3.0738400080e+02  3.2269021514e+02  8.3180839142e+01  2.232748e-13 9.
       -5     1     4     0     0   103  1.8019193060e+02  3.4749999741e+01 -8.6947458356e+02  8.8864266485e+02  4.8000000000e+00 0. 9.
       -3     1     5     0     0   104 -4.1816542647e+00 -1.4191920476e+01 -1.0686775239e+02  1.0788819833e+02  5.0000000000e-01 0. 9.
        2     1     5     0   104     0 -1.9413104201e+02 -1.8864976414e+01 -5.2507125298e+02  5.6012737695e+02  3.3000000000e-01 0. 9.
       15     1     7     0     0     0  4.5732136727e+01 -8.5890464305e+00 -6.3689574245e+01  7.8896888437e+01  1.7768200000e+00  1.154500e-02 9.
      -16     1     7     0     0     0  4.6197310248e+00 -5.1836952155e+00 -2.4369442655e+02  2.4379332670e+02  0.0000000000e+00 0. 9.
#pdf   21   21  7.388289e-03  2.873474e-01  2.869342e+02  1.025863e+01  1.055198e-01
</event>
<event>
    12  9999  1.000000e+00  2.471828e+02  7.906887e-03  1.030863e-01
       21    -1     0     0   101   102  0.0000000000e+00  0.0000000000e+00  5.2719633405e+02  5.2719633405e+02  0.0000000000e+00 0. 9.
       21    -1     0     0   102   103  0.0000000000e+00  0.0000000000e+00 -4.0483734508e+02  4.0483734508e+02  0.0000000000e+00 0. 9.
        6     2     1     2   101     0  5.4753915436e+01  1.7035567115e+02  4.5495929146e+02  5.1832093792e+02  1.7219056843e+02  3.957092e-13 9.
       -6     2     1     2     0   103 -5.4753915436e+01 -1.7035567115e+02 -3.3260030249e+02  4.1371274121e+02  1.6886747785e+02  2.536259e-13 9.
       24     2     3     0     0     0  5.5216073068e+01  7.9906054529e+01  1.3209184241e+02  1.8298860069e+02  8.1257497362e+01  6.565441e-14 9.
        5     1     3     0   101     0 -4.6215763241e-01  9.0449616623e+01  3.2286744905e+02  3.3533233723e+02  4.8000000000e+00 0. 9.
      -24     2     4     0     0     0  2.0679845650e+00 -1.3623177314e+02 -1.4240377393e+02  2.1224083694e+02  7.8765255417e+01  1.414154e-13 9.
       -5     1     4     0     0   103 -5.6821900001e+01 -3.4123898009e+01 -1.9019652856e+02  2.0147190428e+02  4.8000000000e+00 0. 9.
       -1     1     5     0     0   104 -3.4555719801e-01  1.8599262296e+00 -1.0790595045e+01  1.0960135802e+01  3.3000000000e-01 0. 9.
        2     1     5     0   104     0  5.5561630266e+01  7.8046128299e+01  1.4288243745e+02  1.7202846489e+02  3.3000000000e-01 0. 9.
        1     1     7     0   105     0 -3.3431796792e+01 -3.7136283815e+01 -6.2872753111e+01  8.0311148642e+01  3.3000000000e-01 0. 9.
       -2     1     7     0     0   105  3.5499781357e+01 -9.9095489327e+01 -7.9531020816e+01  1.3192968829e+02  3.3000000000e-01 0. 9.
#pdf   21   21  8.110713e-02  6.228267e-02  2.460392e+02  1.057370e+00  1.461658e+00
</event>
<event>
    12  9999  1.000000e+00  2.159547e+02  7.894663e-03  1.047595e-01
       21    -1     0     0   101   102  0.0000000000e+00  0.0000000000e+00  4.9532957340e+02  4.9532957340e+02  0.0000000000e+00 0. 9.
       21    -1     0     0   102   103  0.0000000000e+00  0.0000000000e+00 -1.0184246458e+02  1.0184246458e+02  0.0000000000e+00 0. 9.
        6     2     1     2   101     0 -6.1393966930e+01 -1.1677066602e+02  2.7888328803e+02  3.5278741857e+02  1.7110951680e+02  6.313745e-13 9.
       -6     2     1     2     0   103  6.1393966930e+01  1.1677066602e+02  1.1460382080e+02  2.4438461942e+02  1.7083676082e+02  1.281656e-13 9.
       24     2     3     0     0     0 -6.9657006477e+01 -1.2397617788e+02  2.9195584536e+02  3.3506373444e+02  8.2506358925e+01  1.204239e-14 9.
        5     1     3     0   101     0  8.2630395470e+00  7.2055118617e+00 -1.3072557335e+01  1.7723684127e+01  4.8000000000e+00 0. 9.
      -24     2     4     0     0     0 -2.1332375964e-01  2.3905070830e+01  1.5222345085e+00  8.5545196749e+01  8.2122868743e+01  2.185153e-13 9.
       -5     1     4     0     0   103  6.1607290690e+01  9.2865595188e+01  1.1308158629e+02  1.5883942267e+02  4.8000000000e+00 0. 9.
      -11     1     5     0     0     0 -2.6751013989e+01 -1.1483134684e+02  1.8401195853e+02  2.1854577518e+02  5.1100000000e-04 0. 9.
       12     1     5     0     0     0 -4.2905992488e+01 -9.1448310413e+00  1.0794388683e+02  1.1651795926e+02  0.0000000000e+00 0. 9.
       11     1     7     0     0     0  1.3626203680e+01 -1.7480416904e+01  2.7064188850e+01  3.4981548282e+01  5.1100000000e-04 0. 9.
      -12     1     7     0     0     0 -1.3839527440e+01  4.1385487734e+01 -2.5541954341e+01  5.0563648467e+01  0.0000000000e+00 0. 9.
#pdf   21   21  7.620455e-02  1.566807e-02  2.158467e+02  1.157625e+00  5.670977e+00
</event>
<event>
    12  9999  1.000000e+00  2.442430e+02  7.905803e-03  1.032323e-01
       -2    -1     0     0     0   101  0.0000000000e+00  0.0000000000e+00  1.8926173940e+02  1.8926173940e+02  0.0000000000e+00 0. 9.
        2    -1     0     0   102     0  0.0000000000e+00  0.0000000000e+00 -3.6159464241e+02  3.6159464241e+02  0.0000000000e+00 0. 9.
       -6     2     1     2     0   101 -1.5999682831e+02 -6.9749012342e+01 -1.8504117115e+02  3.0698502725e+02  1.7185942552e+02  7.889548e-15 9.
        6     2     1     2   102     0  1.5999682831e+02  6.9749012342e+01  1.2708268141e+01  2.4387135456e+02  1.6984648275e+02  2.343441e-13 9.
      -24     2     3     0     0     0 -1.1765293710e+02 -1.1272618202e+02 -1.5795180459e+02  2.4067578192e+02  8.0166412576e+01  4.817907e-15 9.
       -5     1     3     0     0   101 -4.2343891210e+01  4.2977169674e+01 -2.7089366555e+01  6.6309245331e+01  4.8000000000e+00 0. 9.
       24     2     4     0     0     0  7.5538742092e+01  2.6019015314e+01  6.9213483167e+01  1.3314032777e+02  8.0949057517e+01  1.683940e-13 9.
        5     1     4     0   102     0  8.4458086220e+01  4.3729997028e+01 -5.6505215026e+01  1.1073102679e+02  4.8000000000e+00 0. 9.
        1     1     5     0   103     0  5.1042068995e+00 -2.0483272521e+01 -4.6100983413e+01  5.0705295116e+01  3.3000000000e-01 0. 9.
       -2     1     5     0     0   103 -1.2275714400e+02 -9.2242909495e+01 -1.1185082118e+02  1.8997048680e+02  3.3000000000e-01 0. 9.
       -3     1     7     0     0   104  5.8548892259e+01  2.5372968404e+01  2.0534237074e+00  6.3845335454e+01  5.0000000000e-01 0. 9.
        4     1     7     0   104     0  1.6989849833e+01  6.4604691012e-01  6.7160059460e+01  6.9294992320e+01  1.5000000000e+00 0. 9.
#pdf   -2    2  2.911719e-02  5.562994e-02  2.435400e+02  2.530826e-01  6.168628e-01
</event>
<event>
    12  9999  1.000000e+00  1.779603e+02  7.877213e-03  1.072551e-01
       21    -1     0     0   101   102  0.0000000000e+00  0.0000000000e+00  2.7140057758e+02  2.7140057758e+02  0.0000000000e+00 0. 9.
       21    -1     0     0   103   101  0.0000000000e+00  0.0000000000e+00 -1.3171692518e+02  1.3171692518e+02  0.0000000000e+00 0. 9.
        6     2     1     2   103     0 -4.1593541847e+01 -2.1952918098e+01  1.3807549956e+02  2.2560159471e+02  1.7210253519e+02  3.331138e-14 9.
       -6     2     1     2     0   102  4.1593541847e+01  2.1952918098e+01  1.6081528399e+00  1.7751590805e+02  1.7116471049e+02  6.910210e-13 9.
       24     2     3     0     0     0 -8.5037240402e+01  1.0904332458e+01  1.2023266511e+02  1.6808324460e+02  8.0286030120e+01  9.177435e-15 9.
        5     1     3     0   103     0  4.3443698555e+01 -3.2857250556e+01  1.7842834446e+01  5.7518350110e+01  4.8000000000e+00 0. 9.
      -24     2     4     0     0     0  6.6780777734e+01 -3.8919244611e+01 -7.0925125684e-02  1.1144264305e+02  8.0281241797e+01  6.397976e-15 9.
       -5     1     4     0     0   102 -2.5187235887e+01  6.0872162709e+01  1.6790779656e+00  6.6073264997e+01  4.8000000000e+00 0. 9.
      -13     1     5     0     0     0 -4.7823056886e+01  3.0052235787e+01  1.1199115633e+02  1.2542811450e+02  1.0566000000e-01  4.977416e+05 9.
       14     1     5     0     0     0 -3.7214183516e+01 -1.9147903330e+01  8.2415087788e+00  4.2655130097e+01  0.0000000000e+00 0. 9.
       11     1     7     0     0     0  2.9076259240e+01 -3.0230179807e+01  3.8409034529e+01  5.6873074088e+01  5.1100000000e-04 0. 9.
      -12     1     7     0     0     0  3.7704518494e+01 -8.6890648035e+00 -3.8479959654e+01  5.4569568965e+01  0.0000000000e+00 0. 9.
#pdf   21   21  4.175394e-02  2.026414e-02  1.775086e+02  2.315332e+00  4.570535e+00
</event>
<event>
    12  9999  1.000000e+00  2.604892e+02  7.911643e-03  1.024512e-01
       21    -1     0     0   101   102  0.0000000000e+00  0.0000000000e+00  3.5730376862e+02  3.5730376862e+02  0.0000000000e+00 0. 9.
       21    -1     0     0   102   103  0.0000000000e+00  0.0000000000e+00 -2.2438657587e+02  2.2438657587e+02  0.0000000000e+00 0. 9.
        6     2     1     2   101     0 -1.3729097573e+02  1.3965068206e+02  1.8064519166e+02  3.1768553335e+02  1.7303262067e+02  8.797670e-14 9.
       -6     2     1     2     0   103  1.3729097573e+02 -1.3965068206e+02 -4.7727998908e+01  2.6400481114e+02  1.7049766394e+02  1.872096e-13 9.
       24     2     3     0     0     0 -1.4600345960e+02  6.8443598602e+01  8.8173011323e+01  2.0055099427e+02  8.0278795290e+01  5.172672e-14 9.
        5     1     3     0   101     0  8.7124838660e+00  7.1207083463e+01  9.2472180333e+01  1.1713453908e+02  4.8000000000e+00 0. 9.
      -24     2     4     0     0     0  1.1846979212e+02 -1.5642061473e+02 -7.6405500525e+01  2.2552226064e+02  8.0746449948e+01  7.756345e-15 9.
       -5     1     4     0     0   103  1.8821183615e+01  1.6769932660e+01  2.8677501616e+01  3.8482550501e+01  4.8000000000e+00 0. 9.
      -13     1     5     0     0     0 -3.1881984631e+01  2.7558187063e-01  5.4952445376e+01  6.3532033701e+01  1.0566000000e-01  7.214848e+05 9.
       14     1     5     0     0     0 -1.1412147497e+02  6.8168016731e+01  3.3220565946e+01  1.3701896057e+02  0.0000000000e+00 0. 9.
        3     1     7     0   104     0  6.3441738633e+01 -1.3251027833e+02 -7.6208957123e+01  1.6550493409e+02  5.0000000000e-01 0. 9.
       -4     1     7     0     0   104  5.5028053484e+01 -2.3910336399e+01 -1.9654340215e-01  6.0017326550e+01  1.5000000000e+00 0. 9.
#pdf   21   21  5.496981e-02  3.452101e-02  2.596547e+02  1.681434e+00  2.753842e+00
</event>
<event>
    12  9999  1.000000e+00  1.957133e+02  7.885778e-03  1.060139e-01
       21    -1     0     0   101   102  0.0000000000e+00  0.0000000000e+00  3.3089786187e+01  3.3089786187e+01  0.0000000000e+00 0. 9.
       21    -1     0     0   103   101  0.0000000000e+00  0.0000000000e+00 -1.1708361987e+03  1.1708361987e+03  0.0000000000e+00 0. 9.
        6     2     1     2   103     0  6.9784982475e+00  8.8404115667e+01 -6.2414153329e+02  6.5326474070e+02  1.7128391858e+02  1.151596e-13 9.
       -6     2     1     2     0   102 -6.9784982475e+00 -8.8404115667e+01 -5.1360487923e+02  5.5066124419e+02  1.7769031144e+02  7.753929e-14 9.
       24     2     3     0     0     0  6.8192641728e+01  6.1005909132e+01 -3.4604045720e+02  3.6715098429e+02  8.1755060482e+01  1.594574e-14 9.
        5     1     3     0   103     0 -6.1214143480e+01  2.7398206534e+01 -2.7810107610e+02  2.8611375641e+02  4.8000000000e+00 0. 9.
      -24     2     4     0     0     0  1.1410652233e+01 -7.5452740095e+00 -1.0010351114e+02  1.2889977779e+02  8.0045647147e+01  2.468843e-13 9.
       -5     1     4     0     0   102 -1.8389150481e+01 -8.0858841657e+01 -4.1350136809e+02  4.2176146640e+02  4.8000000000e+00 0. 9.
       -3     1     5     0     0   104  1.9922100525e+01  6.5374299564e+01 -1.4432912005e+02  1.5969293669e+02  5.0000000000e-01 0. 9.
        4     1     5     0   104     0  4.8270541203e+01 -4.3683904318e+00 -2.0171133715e+02  2.0745804761e+02  1.5000000000e+00 0. 9.
        1     1     7     0   105     0  2.5583888194e+01 -2.0663979316e+01 -1.0410298647e+02  1.0917452115e+02  3.3000000000e-01 0. 9.
       -2     1     7     0     0   105 -1.4173235961e+01  1.3118705306e+01  3.9994753311e+00  1.9725256638e+01  3.3000000000e-01 0. 9.
#pdf   21   21  5.090736e-03  1.801286e-01  1.928786e+02  1.328319e+01  3.270772e-01
</event>
<event>
    12  9999  1.000000e+00  1.768646e+02  7.876658e-03  1.073368e-01
       21    -1     0     0   101   102  0.0000000000e+00  0.0000000000e+00  5.5575408262e+01  5.5575408262e+01  0.0000000000e+00 0. 9.
       21    -1     0     0   102   103  0.0000000000e+00  0.0000000000e+00 -1.2214391825e+03  1.2214391825e+03  0.0000000000e+00 0. 9.
        6     2     1     2   101     0 -9.7520655825e+00 -4.7034806722e+01 -1.1478977805e+02  2.1124089448e+02  1.7070045850e+02  4.217047e-14 9.
       -6     2     1     2     0   103  9.7520655825e+00  4.7034806722e+01 -1.0510739962e+03  1.0657736963e+03  1.6973405782e+02  3.666649e-14 9.
       24     2     3     0     0     0  2.8477112781e+01  2.1228312631e+01 -2.5771986281e+01  9.2630056897e+01  8.1575394295e+01  3.678539e-14 9.
        5     1     3     0   101     0 -3.8229178364e+01 -6.8263119353e+01 -8.9017791764e+01  1.1861083759e+02  4.8000000000e+00 0. 9.
      -24     2     4     0     0     0 -3.0555586122e+01  3.6273925784e+01 -9.7088415972e+02  9.7525323882e+02  7.9078358033e+01  3.166622e-14 9.
       -5     1     4     0     0   103  4.0307651704e+01  1.0760880938e+01 -8.0189836484e+01  9.0520457465e+01  4.8000000000e+00 0. 9.
       -3     1     5     0     0   104  4.6386455177e+01 -8.2451883594e+00 -3.2790025208e+01  5.7403154165e+01  5.0000000000e-01 0. 9.
        4     1     5     0   104     0 -1.7909342396e+01  2.9473500991e+01  7.0180389264e+00  3.5226902732e+01  1.5000000000e+00 0. 9.
       15     1     7     0     0     0 -3.9772434661e+01 -1.2738252468e+00 -7.4654788899e+02  7.4760977577e+02  1.7768200000e+00  1.816056e-01 9.
      -16     1     7     0     0     0  9.2168485395e+00  3.7547751031e+01 -2.2433627073e+02  2.2764346305e+02  0.0000000000e+00 0. 9.
#pdf   21   21  8.550063e-03  1.879137e-01  1.764002e+02  9.120014e+00  3.069832e-01
</event>
<event>
    12  9999  1.000000e+00  1.770074e+02  7.876730e-03  1.073261e-01
       21    -1     0     0   101   102  0.0000000000e+00  0.0000000000e+00  2.4321376018e+02  2.4321376018e+02  0.0000000000e+00 0. 9.
       21    -1     0     0   103   101  0.0000000000e+00  0.0000000000e+00 -2.6583685186e+02  2.6583685186e+02  0.0000000000e+00 0. 9.
        6     2     1     2   103     0 -4.4367140123e+01 -5.3366909647e+00 -1.9403525995e+02  2.6255308634e+02  1.7113596248e+02  5.235775e-13 9.
       -6     2     1     2     0   102  4.4367140123e+01  5.3366909647e+00  1.7141216826e+02  2.4649752570e+02  1.7141171300e+02  1.451977e-13 9.
       24     2     3     0     0     0 -3.4628294084e+01  2.0938840932e+01 -2.9571333279e+01  9.5649905205e+01  8.1467090307e+01  5.959951e-14 9.
        5     1     3     0   103     0 -9.7388460386e+00 -2.6275531897e+01 -1.6446392667e+02  1.6690318114e+02  4.8000000000e+00 0. 9.
      -24     2     4     0     0     0  8.8711496391e+01 -2.0844550091e+01  1.4310038118e+02  1.8753587203e+02  7.9923459267e+01  6.005015e-14 9.
       -5     1     4     0     0   102 -4.4344356268e+01  2.6181241056e+01  2.8311787080e+01  5.8961653672e+01  4.8000000000e+00 0. 9.
      -15     1     5     0     0     0 -1.3718311826e+01 -3.1553752520e+01 -1.0614900382e+01  3.6050860973e+01  1.7768200000e+00  1.689231e-02 9.
       16     1     5     0     0     0 -2.0909982258e+01  5.2492593452e+01 -1.8956432897e+01  5.9599044233e+01  0.0000000000e+00 0. 9.
       11     1     7     0     0     0  7.3841649726e+01 -4.8818430110e+01  9.4154721187e+01  1.2923211627e+02  5.1100000000e-04 0. 9.
      -12     1     7     0     0     0  1.4869846665e+01  2.7973880019e+01  4.8945659996e+01  5.8303755759e+01  0.0000000000e+00 0. 9.
#pdf   21   21  3.741750e-02  4.089798e-02  1.768741e+02  2.587655e+00  2.365443e+00
</event>
<event>
    12  9999  1.000000e+00  2.182728e+02  7.895628e-03  1.046252e-01
       21    -1     0     0   101   102  0.0000000000e+00  0.0000000000e+00  1.2452772094e+03  1.2452772094e+03  0.0000000000e+00 0. 9.
       21    -1     0     0   103   101  0.0000000000e+00  0.0000000000e+00 -1.9435271808e+02  1.9435271808e+02  0.0000000000e+00 0. 9.
        6     2     1     2   103     0  3.6648426134e+01  1.3193472011e+02 -1.1941841195e+02  2.4918618043e+02  1.7053773159e+02  2.361248e-14 9.
       -6     2     1     2     0   102 -3.6648426134e+01 -1.3193472011e+02  1.1703429033e+03  1.1904437471e+03  1.6942233065e+02  4.768430e-13 9.
       24     2     3     0     0     0  6.0591951605e+01  2.1529523225e+01 -2.7985363826e+01  1.0377076790e+02  7.6487166984e+01  7.962143e-15 9.
        5     1     3     0   103     0 -2.3943525472e+01  1.1040519689e+02 -9.1433048125e+01  1.4541541253e+02  4.8000000000e+00 0. 9.
      -24     2     4     0     0     0  1.5344371536e+01 -8.3714976811e+01  3.8666736576e+02  4.0355189758e+02  7.8095039647e+01  6.340781e-15 9.
       -5     1     4     0     0   102 -5.1992797670e+01 -4.8219743301e+01  7.8367553752e+02  7.8689184947e+02  4.8000000000e+00 0. 9.
      -13     1     5     0     0     0 -7.3650096117e+00  1.8020840730e+01 -2.9919644178e+01  3.5695802820e+01  1.0566000000e-01  3.289594e+05 9.
       14     1     5     0     0     0  6.7956961217e+01  3.5086824944e+00  1.9342803513e+00  6.8074965084e+01  0.0000000000e+00 0. 9.
        3     1     7     0   104     0  4.1149112028e+01 -5.0973804407e+01  3.0372903210e+02  3.1071394095e+02  5.0000000000e-01 0. 9.
       -4     1     7     0     0   104 -2.5804740492e+01 -3.2741172404e+01  8.2938333653e+01  9.2837956631e+01  1.5000000000e+00 0. 9.
#pdf   21   21  1.915811e-01  2.990042e-02  2.178389e+02  2.857475e-01  3.191942e+00
</event>
<event>
    12  9999  1.000000e+00  1.973106e+02  7.886511e-03  1.059091e-01
       21    -1     0     0   101   102  0.0000000000e+00  0.0000000000e+00  1.4069870884e+03  1.4069870884e+03  0.0000000000e+00 0. 9.
       21    -1     0     0   103   101  0.0000000000e+00  0.0000000000e+00 -9.2369180343e+01  9.2369180343e+01  0.0000000000e+00 0. 9.
        6     2     1     2   103     0  2.2843108910e+01  9.3037991057e+01  2.8537896006e+01  1.9802065002e+02  1.7093826641e+02  1.381418e-13 9.
       -6     2     1     2     0   102 -2.2843108910e+01 -9.3037991057e+01  1.2860800120e+03  1.3013356187e+03  1.7405378407e+02  9.454900e-14 9.
       24     2     3     0     0     0 -2.3566514610e+01  1.5898575623e+01 -2.9515299846e+01  9.0793992341e+01  8.1020064196e+01  9.428296e-14 9.
        5     1     3     0   103     0  4.6409623521e+01  7.7139415434e+01  5.8053195852e+01  1.0722665768e+02  4.8000000000e+00 0. 9.
      -24     2     4     0     0     0 -3.8749550128e+01 -1.1305910487e+02  1.2403341542e+03  1.2487087873e+03  8.0999584418e+01  4.395696e-14 9.
       -5     1     4     0     0   102  1.5906441218e+01  2.0021113815e+01  4.5745857845e+01  5.2626831375e+01  4.8000000000e+00 0. 9.
       -3     1     5     0     0   104 -5.3412182592e+00 -1.7942167346e+01  2.0466501588e+01  2.7741262928e+01  5.0000000000e-01 0. 9.
        2     1     5     0   104     0 -1.8225296351e+01  3.3840742969e+01 -4.9981801435e+01  6.3052729413e+01  3.3000000000e-01 0. 9.
       15     1     7     0     0     0  2.0672796486e+01 -2.4875052668e+01  1.6644560793e+02  1.6956836452e+02  1.7768200000e+00  4.627017e-02 9.
      -16     1     7     0     0     0 -5.9422346613e+01 -8.8184052204e+01  1.0738885462e+03  1.0791404228e+03  0.0000000000e+00 0. 9.
#pdf   21   21  2.164596e-01  1.421064e-02  1.959535e+02  2.282520e-01  6.149835e+00
</event>
<event>
    12  9999  1.000000e+00  2.124576e+02  7.893187e-03  1.049655e-01
       21    -1     0     0   101   102  0.0000000000e+00  0.0000000000e+00  5.3620816176e+02  5.3620816176e+02  0.0000000000e+00 0. 9.
       21    -1     0     0   103   101  0.0000000000e+00  0.0000000000e+00 -1.0403262316e+02  1.0403262316e+02  0.0000000000e+00 0. 9.
        6     2     1     2   103     0  7.6527687356e+01  1.0042235962e+02  7.5982392444e+01  2.2533214159e+02  1.7047026963e+02  1.190655e-13 9.
       -6     2     1     2     0   102 -7.6527687356e+01 -1.0042235962e+02  3.5619314615e+02  4.1490864333e+02  1.7127313771e+02  4.477764e-13 9.
       24     2     3     0     0     0  1.7235951239e+01  9.2578297096e+00 -1.5352664490e+01  8.3234942075e+01  7.9432775661e+01  9.302099e-15 9.
        5     1     3     0   103     0  5.9291736116e+01  9.1164529906e+01  9.1335056934e+01  1.4209719951e+02  4.8000000000e+00 0. 9.
      -24     2     4     0     0     0  1.4967006574e+01 -7.3353625144e+01  1.3699550556e+02  1.7579644991e+02  8.0819908739e+01  1.146686e-14 9.
       -5     1     4     0     0   102 -9.1494693930e+01 -2.7068734472e+01  2.1919764059e+02  2.3911219342e+02  4.8000000000e+00 0. 9.
      -13     1     5     0     0     0  4.7479868970e+01 -4.4612230938e+00 -1.5104506400e+01  5.0023971719e+01  1.0566000000e-01  7.896087e+05 9.
       14     1     5     0     0     0 -3.0243917731e+01  1.3719052803e+01 -2.4815808950e-01  3.3210970356e+01  0.0000000000e+00 0. 9.
        3     1     7     0   104     0  7.4251990229e+00  9.2931386970e+00  6.4504659439e+01  6.5594184931e+01  5.0000000000e-01 0. 9.
       -4     1     7     0     0   104  7.5418075512e+00 -8.2646763841e+01  7.2490846121e+01  1.1020226498e+02  1.5000000000e+00 0. 9.
#pdf   21   21  8.249356e-02  1.600502e-02  2.121350e+02  1.048965e+00  5.572363e+00
</event>
<event>
    12  9999  1.000000e+00  2.165297e+02  7.894903e-03  1.047260e-01
       21    -1     0     0   101   102  0.0000000000e+00  0.0000000000e+00  8.5608702289e+02  8.5608702289e+02  0.0000000000e+00 0. 9.
       21    -1     0     0   102   103  0.0000000000e+00  0.0000000000e+00 -7.1082632084e+01  7.1082632084e+01  0.0000000000e+00 0. 9.
        6     2     1     2   101     0  1.2865644602e+02 -3.1230850855e+01  6.1406121762e+02  6.5099046335e+02  1.7084951638e+02  9.905186e-14 9.
       -6     2     1     2     0   103 -1.2865644602e+02  3.1230850855e+01  1.7094317319e+02  2.7617919162e+02  1.7182994581e+02  1.842496e-14 9.
       24     2     3     0     0     0  1.1755270217e+02  1.4355052386e+01  2.9037291298e+02  3.2388417136e+02  8.0992731462e+01  6.461482e-14 9.
        5     1     3     0   101     0  1.1103743850e+01 -4.5585903241e+01  3.2368830464e+02  3.2710629199e+02  4.8000000000e+00 0. 9.
      -24     2     4     0     0     0 -9.3797649935e+01  6.8814270299e+01  5.9564151937e+01  1.5347639843e+02  8.0459391928e+01  5.190323e-14 9.
       -5     1     4     0     0   103 -3.4858796084e+01 -3.7583419444e+01  1.1137902125e+02  1.2270279319e+02  4.8000000000e+00 0. 9.
      -13     1     5     0     0     0 -7.5874007647e-01  2.1514681265e+01  2.3479938613e+01  3.1855547048e+01  1.0566000000e-01  1.701240e+06 9.
       14     1     5     0     0     0  1.1831144224e+02 -7.1596288784e+00  2.6689297437e+02  2.9202862431e+02  0.0000000000e+00 0. 9.
        1     1     7     0   104     0 -6.2628411570e+00  3.3124247615e+01  4.7398750206e+01  5.8165190454e+01  3.3000000000e-01 0. 9.
       -2     1     7     0     0   104 -8.7534808778e+01  3.5690022684e+01  1.2165401731e+01  9.5311207978e+01  3.3000000000e-01 0. 9.
#pdf   21   21  1.317057e-01  1.093579e-02  2.161421e+02  5.430044e-01  7.578529e+00
</event>
<event>
    12  9999  1.000000e+00  2.565774e+02  7.910270e-03  1.026337e-01
       21    -1     0     0   101   102  0.0000000000e+00  0.0000000000e+00  2.1442382395e+02  2.1442382395e+02  0.0000000000e+00 0. 9.
       21    -1     0     0   103   101  0.0000000000e+00  0.0000000000e+00 -3.2926261570e+02  3.2926261570e+02  0.0000000000e+00 0. 9.
        6     2     1     2   103     0 -3.6138900879e+01  1.8821683266e+02 -1.2798503141e+02  2.8633776212e+02  1.6993395629e+02  2.295813e-13 9.
       -6     2     1     2     0   102  3.6138900879e+01 -1.8821683266e+02  1.3146239654e+01  2.5734867752e+02  1.7124229020e+02  1.490682e-13 9.
       24     2     3     0     0     0 -3.0134980156e+01  1.7949735485e+01 -3.8519760414e+01  9.3843590373e+01  7.8054708242e+01  8.233111e-14 9.
        5     1     3     0   103     0 -6.0039207227e+00  1.7026709717e+02 -8.9465270992e+01  1.9249417175e+02  4.8000000000e+00 0. 9.
      -24     2     4     0     0     0  7.9996630595e+01 -7.5505323265e+01  4.1588578302e+00  1.3597653147e+02  7.9823594660e+01  1.252662e-13 9.
       -5     1     4     0     0   102 -4.3857729715e+01 -1.1271150939e+02  8.9873818235e+00  1.2137214605e+02  4.8000000000e+00 0. 9.
       -3     1     5     0     0   104  9.8371848667e-01 -2.8674851618e+01 -1.9227190402e+01  3.4541998612e+01  5.0000000000e-01 0. 9.
        4     1     5     0   104     0 -3.1118698643e+01  4.6624587103e+01 -1.9292570012e+01  5.9301591761e+01  1.5000000000e+00 0. 9.
       13     1     7     0     0     0  2.6887691090e+01 -2.4190468266e+01  3.9967621779e+01  5.3903141297e+01  1.0566000000e-01  3.128556e+05 9.
      -14     1     7     0     0     0  5.3108939505e+01 -5.1314854999e+01 -3.5808763949e+01  8.2073390173e+01  0.0000000000e+00 0. 9.
#pdf   21   21  3.298828e-02  5.065579e-02  2.561428e+02  2.882260e+00  1.843920e+00
</event>
<event>
    12  9999  1.000000e+00  2.310126e+02  7.900759e-03  1.039176e-01
       21    -1     0     0   101   102  0.0000000000e+00  0.0000000000e+00  7.5748748232e+02  7.5748748232e+02  0.0000000000e+00 0. 9.
       21    -1     0     0   103   101  0.0000000000e+00  0.0000000000e+00 -8.3389153315e+01  8.3389153315e+01  0.0000000000e+00 0. 9.
        6     2     1     2   103     0 -1.0260612726e+02 -1.1703381172e+02  1.7161558975e+02  2.8789058669e+02  1.7089221406e+02  1.859388e-13 9.
       -6     2     1     2     0   102  1.0260612726e+02  1.1703381172e+02  5.0248273925e+02  5.5298604894e+02  1.7052781779e+02  8.275473e-14 9.
       24     2     3     0     0     0 -1.2328553488e+02 -7.3257307032e+01  1.7362226125e+02  2.3919677813e+02  8.0650188601e+01  5.383965e-14 9.
        5     1     3     0   103     0  2.0679407626e+01 -4.3776504687e+01 -2.0066714935e+00  4.8693808568e+01  4.8000000000e+00 0. 9.
      -24     2     4     0     0     0  6.8694270333e+01 -1.6036473502e-01  2.7775746850e+02  2.9723426234e+02  8.0498862773e+01  2.417698e-13 9.
       -5     1     4     0     0   102  3.3911856923e+01  1.1719417645e+02  2.2472527075e+02  2.5575178660e+02  4.8000000000e+00 0. 9.
      -15     1     5     0     0     0 -1.0726537961e+02 -2.3179545193e+01  1.3484374271e+02  1.7386530711e+02  1.7768200000e+00  1.335319e-02 9.
       16     1     5     0     0     0 -1.6020155273e+01 -5.0077761840e+01  3.8778518536e+01  6.5331471021e+01  0.0000000000e+00 0. 9.
        3     1     7     0   104     0 -1.8521856186e+00 -2.8885945947e+01  6.2127907206e+01  6.8541632010e+01  5.0000000000e-01 0. 9.
       -4     1     7     0     0   104  7.0546455952e+01  2.8725581212e+01  2.1562956130e+02  2.2869263033e+02  1.5000000000e+00 0. 9.
#pdf   21   21  1.165365e-01  1.282910e-02  2.308780e+02  6.476691e-01  6.676712e+00
</event>
<event>
    12  9999  1.000000e+00  2.193825e+02  7.896086e-03  1.045616e-01
       21    -1     0     0   101   102  0.0000000000e+00  0.0000000000e+00  2.1105529012e+03  2.1105529012e+03  0.0000000000e+00 0. 9.
       21    -1     0     0   103   101  0.0000000000e+00  0.0000000000e+00 -2.9120542114e+01  2.9120542114e+01  0.0000000000e+00 0. 9.
        6     2     1     2   103     0 -9.5564542875e+01  9.7336641185e+01  5.4264147775e+02  5.8533009952e+02  1.7188527702e+02  3.952949e-13 9.
       -6     2     1     2     0   102  9.5564542875e+01 -9.7336641185e+01  1.5387908813e+03  1.5543433438e+03  1.7175229358e+02  8.884522e-14 9.
       24     2     3     0     0     0 -1.0992776198e+02  1.6080753035e+01  3.5409716764e+02  3.7946407926e+02  7.9154784097e+01  5.844152e-14 9.
        5     1     3     0   103     0  1.4363219105e+01  8.1255888150e+01  1.8854431011e+02  2.0586602026e+02  4.8000000000e+00 0. 9.
      -24     2     4     0     0     0  2.1645811481e+01  1.3331910135e+01  6.4702016024e+02  6.5268400340e+02  8.1945345002e+01  6.712893e-14 9.
       -5     1     4     0     0   102  7.3918731394e+01 -1.1066855132e+02  8.9177072110e+02  9.0165934039e+02  4.8000000000e+00 0. 9.
       -1     1     5     0     0   104 -1.3964183444e+01 -5.5596802004e+00  3.6488650123e+00  1.5470345150e+01  3.3000000000e-01 0. 9.
        2     1     5     0   104     0 -9.5963578536e+01  2.1640433235e+01  3.5044830263e+02  3.6399373411e+02  3.3000000000e-01 0. 9.
        1     1     7     0   105     0  3.5876522689e+01  3.9670902633e+01  3.3704150244e+02  3.4125941550e+02  3.3000000000e-01 0. 9.
       -4     1     7     0     0   105 -1.4230711208e+01 -2.6338992498e+01  3.0997865779e+02  3.1142458791e+02  1.5000000000e+00 0. 9.
#pdf   21   21  3.247004e-01  4.480083e-03  2.193305e+02  7.707654e-02  1.458633e+01
</event>
<event>
    12  9999  1.000000e+00  2.180016e+02  7.895515e-03  1.046409e-01
       21    -1     0     0   101   102  0.0000000000e+00  0.0000000000e+00  1.1065557352e+03  1.1065557352e+03  0.0000000000e+00 0. 9.
       21    -1     0     0   102   103  0.0000000000e+00  0.0000000000e+00 -2.4269722608e+02  2.4269722608e+02  0.0000000000e+00 0. 9.
        6     2     1     2   101     0  1.1664163657e+02 -7.3404904680e+01  1.0443952332e+03  1.0671623702e+03  1.7053026065e+02  2.066397e-13 9.
       -6     2     1     2     0   103 -1.1664163657e+02  7.3404904680e+01 -1.8053672407e+02  2.8209059110e+02  1.6729626844e+02  3.830271e-14 9.
       24     2     3     0     0     0  1.1472192027e+02 -7.5050890397e+01  5.7745854833e+02  6.0019416757e+02  8.9335931196e+01  4.362151e-14 9.
        5     1     3     0   101     0  1.9197163011e+00  1.6459857168e+00  4.6693668489e+02  4.6696820263e+02  4.8000000000e+00 0. 9.
      -24     2     4     0     0     0 -2.3837525660e+00  2.9838216652e+01 -1.1377352446e+02  1.4268727269e+02  8.0741819824e+01  2.259830e-13 9.
       -5     1     4     0     0   103 -1.1425788400e+02  4.3566688028e+01 -6.6763199607e+01  1.3940331841e+02  4.8000000000e+00 0. 9.
       -3     1     5     0     0   104  1.1213958994e+02 -9.1020852560e+01  5.4610283275e+02  5.6487931204e+02  5.0000000000e-01 0. 9.
        4     1     5     0   104     0  2.5823303303e+00  1.5969962163e+01  3.1355715580e+01  3.5314855528e+01  1.5000000000e+00 0. 9.
        1     1     7     0   105     0 -1.3223598328e+01 -2.5769565369e+01 -3.1501448000e+01  4.2794674647e+01  3.3000000000e-01 0. 9.
       -2     1     7     0     0   105  1.0839845762e+01  5.5607782021e+01 -8.2272076463e+01  9.9892598039e+01  3.3000000000e-01 0. 9.
#pdf   21   21  1.702393e-01  3.733803e-02  2.167524e+02  3.553788e-01  2.568171e+00
</event>
<event>
    12  9999  1.000000e+00  1.839724e+02  7.880204e-03  1.068181e-01
       21    -1     0     0   101   102  0.0000000000e+00  0.0000000000e+00  3.1915093046e+02  3.1915093046e+02  0.0000000000e+00 0. 9.
       21    -1     0     0   102   103  0.0000000000e+00  0.0000000000e+00 -1.4141672190e+02  1.4141672190e+02  0.0000000000e+00 0. 9.
        6     2     1     2   101     0 -6.3632072124e+01 -2.2423700648e+01  2.0403309035e+02  2.7473342438e+02  1.7116392598e+02  1.498426e-13 9.
       -6     2     1     2     0   103  6.3632072124e+01  2.2423700648e+01 -2.6298881791e+01  1.8583422799e+02  1.7114574537e+02  6.147062e-14 9.
       24     2     3     0     0     0  1.3794020024e+01 -6.4655499655e+00  3.7305269020e+01  9.0151007218e+01  8.0643925257e+01  1.568807e-13 9.
        5     1     3     0   101     0 -7.7426092147e+01 -1.5958150683e+01  1.6672782133e+02  1.8458241716e+02  4.8000000000e+00 0. 9.
      -24     2     4     0     0     0  9.9455983855e+01  2.0695996849e+00  1.2709141478e+01  1.2889296038e+02  8.0969728861e+01  3.409987e-14 9.
       -5     1     4     0     0   103 -3.5823911731e+01  2.0354100963e+01 -3.9008023269e+01  5.6941267610e+01  4.8000000000e+00 0. 9.
      -15     1     5     0     0     0  1.0580233776e+01  2.4656865894e+01  4.9691569468e+01  5.6500544669e+01  1.7768200000e+00  7.378757e-02 9.
       16     1     5     0     0     0  3.2137862478e+00 -3.1122415859e+01 -1.2386300447e+01  3.3650462548e+01  0.0000000000e+00 0. 9.
        3     1     7     0   104     0  2.8618160143e+01 -6.5142404460e-01  4.3104977376e+01  5.1746618420e+01  5.0000000000e-01 0. 9.
       -4     1     7     0     0   104  7.0837823712e+01  2.7210237295e+00 -3.0395835899e+01  7.7146341963e+01  1.5000000000e+00 0. 9.
#pdf   21   21  4.910014e-02  2.175642e-02  1.839639e+02  1.948510e+00  4.292857e+00
</event>
<event>
    12  9999  1.000000e+00  3.037166e+02  7.925603e-03  1.006364e-01
       21    -1     0     0   101   102  0.0000000000e+00  0.0000000000e+00  4.2149870243e+02  4.2149870243e+02  0.0000000000e+00 0. 9.
       21    -1     0     0   103   101  0.0000000000e+00  0.0000000000e+00 -4.7959886788e+02  4.7959886788e+02  0.0000000000e+00 0. 9.
        6     2     1     2   103     0  4.4008326279e+01  2.4689285195e+02 -3.6126748428e+02  4.7204102185e+02  1.7151011046e+02  1.066908e-13 9.
       -6     2     1     2     0   102 -4.4008326279e+01 -2.4689285195e+02  3.0316731883e+02  4.2905654846e+02  1.7113236236e+02  3.053478e-13 9.
       24     2     3     0     0     0 -1.8473952692e+01  1.5516395581e+02 -1.3849674947e+02  2.2310716345e+02  7.8602268778e+01  1.962029e-13 9.
        5     1     3     0   103     0  6.2482278972e+01  9.1728896138e+01 -2.2277073481e+02  2.4893385841e+02  4.8000000000e+00 0. 9.
      -24     2     4     0     0     0 -9.4180121237e+00 -1.5475509798e+02  9.8157486474e+01  2.0159682257e+02  8.3477825902e+01  7.504590e-14 9.
       -5     1     4     0     0   102 -3.4590314156e+01 -9.2137753972e+01  2.0500983235e+02  2.2745972589e+02  4.8000000000e+00 0. 9.
       -3     1     5     0     0   104  3.5497751973e+00  1.7885263765e+01  9.0554170233e+00  2.0365022499e+01  5.0000000000e-01 0. 9.
        4     1     5     0   104     0 -2.2023727890e+01  1.3727869205e+02 -1.4755216649e+02  2.0274214095e+02  1.5000000000e+00 0. 9.
        1     1     7     0   105     0 -8.5465719628e+00 -5.3158726987e+01 -8.2532215320e+00  5.4471265020e+01  3.3000000000e-01 0. 9.
       -2     1     7     0     0   105 -8.7144016086e-01 -1.0159637099e+02  1.0641070801e+02  1.4712555755e+02  3.3000000000e-01 0. 9.
#pdf   21   21  6.484595e-02  7.378444e-02  3.036101e+02  1.371031e+00  1.170242e+00
</event>
<event>
    12  9999  1.000000e+00  1.762933e+02  7.876367e-03  1.073796e-01
       21    -1     0     0   101   102  0.0000000000e+00  0.0000000000e+00  4.5992283235e+02  4.5992283235e+02  0.0000000000e+00 0. 9.
       21    -1     0     0   102   103  0.0000000000e+00  0.0000000000e+00 -6.8346093778e+01  6.8346093778e+01  0.0000000000e+00 0. 9.
        6     2     1     2   101     0 -6.0749652268e+00  4.0166924914e+01  1.6796877853e+02  2.4365448436e+02  1.7176644064e+02  3.657446e-13 9.
       -6     2     1     2     0   103  6.0749652268e+00 -4.0166924914e+01  2.2360796005e+02  2.8461444177e+02  1.7133176473e+02  1.280999e-14 9.
       24     2     3     0     0     0  2.3214111298e+01 -8.6570747509e+00  1.6584878667e+02  1.8647785179e+02  8.1574072231e+01  7.911854e-14 9.
        5     1     3     0   101     0 -2.9289076525e+01  4.8823999665e+01  2.1199918549e+00  5.7176632574e+01  4.8000000000e+00 0. 9.
      -24     2     4     0     0     0  3.1390283701e+00  5.1889124126e+00  3.1812005009e+01  8.7448268011e+01  8.1230644491e+01  1.801812e-14 9.
       -5     1     4     0     0   103  2.9359368567e+00 -4.5355837327e+01  1.9179595504e+02  1.9716617376e+02  4.8000000000e+00 0. 9.
      -15     1     5     0     0     0  1.3429214159e+01  3.6419290982e+01  6.8483011813e+01  7.8738735987e+01  1.7768200000e+00  8.086389e-03 9.
       16     1     5     0     0     0  9.7848971388e+00 -4.5076365733e+01  9.7365774859e+01  1.0773911580e+02  0.0000000000e+00 0. 9.
       11     1     7     0     0     0 -1.4957623586e+01  6.2225198306e+00  5.5388614356e+01  5.7709174807e+01  5.1100000000e-04 0. 9.
      -12     1     7     0     0     0  1.8096651956e+01 -1.0336074180e+00 -2.3576609347e+01  2.9739093204e+01  0.0000000000e+00 0. 9.
#pdf   21   21  7.075736e-02  1.051478e-02  1.760820e+02  1.289594e+00  7.798517e+00
</event>
<event>
    12  9999  1.000000e+00  2.724470e+02  7.915719e-03  1.019139e-01
       21    -1     0     0   101   102  0.0000000000e+00  0.0000000000e+00  5.0207291724e+02  5.0207291724e+02  0.0000000000e+00 0. 9.
       21    -1     0     0   102   103  0.0000000000e+00  0.0000000000e+00 -1.5783381772e+02  1.5783381772e+02  0.0000000000e+00 0. 9.
        6     2     1     2   101     0  8.9605429072e+01 -1.9344924578e+02  8.9481448072e+01  2.8737220986e+02  1.7065788538e+02  2.400634e-14 9.
       -6     2     1     2     0   103 -8.9605429072e+01  1.9344924578e+02  2.5475765144e+02  3.7253452509e+02  1.6860832662e+02  2.912130e-14 9.
       24     2     3     0     0     0 -2.2220411802e+00 -1.0678563158e+02  7.0792777645e+00  1.3652121056e+02  8.4733795978e+01  1.274363e-13 9.
        5     1     3     0   101     0  9.1827470252e+01 -8.6663614196e+01  8.2402170307e+01  1.5085099930e+02  4.8000000000e+00 0. 9.
      -24     2     4     0     0     0 -1.2473818032e+02  1.8241514410e+02  2.2774654056e+02  3.2661392273e+02  7.7286928754e+01  6.199478e-15 9.
       -5     1     4     0     0   103  3.5132751252e+01  1.1034101677e+01  2.7011110886e+01  4.5920602366e+01  4.8000000000e+00 0. 9.
       -1     1     5     0     0   104  1.9842255927e+01 -5.4111657001e+01  4.0415649208e+01  7.0394034864e+01  3.3000000000e-01 0. 9.
        2     1     5     0   104     0 -2.2064297107e+01 -5.2673974583e+01 -3.3336371443e+01  6.6127175701e+01  3.3000000000e-01 0. 9.
        1     1     7     0   105     0  9.1603353382e+00  1.9023877476e+01  1.0464932791e+01  2.3567846233e+01  3.3000000000e-01 0. 9.
       -2     1     7     0     0   105 -1.3389851566e+02  1.6339126663e+02  2.1728160776e+02  3.0304607649e+02  3.3000000000e-01 0. 9.
#pdf   21   21  7.724199e-02  2.428213e-02  2.718097e+02  1.115235e+00  3.848489e+00
</event>
<event>
    12  9999  1.000000e+00  1.947768e+02  7.885346e-03  1.060758e-01
       21    -1     0     0   101   102  0.0000000000e+00  0.0000000000e+00  2.0126068102e+02  2.0126068102e+02  0.0000000000e+00 0. 9.
       21    -1     0     0   103   101  0.0000000000e+00  0.0000000000e+00 -2.1448884530e+02  2.1448884530e+02  0.0000000000e+00 0. 9.
        6     2     1     2   103     0  8.1526251571e+01 -3.6850056841e+01  6.5754704191e+01  2.0513336721e+02  1.7248640768e+02  1.273280e-13 9.
       -6     2     1     2     0   102 -8.1526251571e+01  3.6850056841e+01 -7.8982868477e+01  2.1061615911e+02  1.7354082108e+02  5.382222e-13 9.
       24     2     3     0     0     0  7.4764753704e+01  3.7501771723e+01  2.1689325888e+01  1.1830762316e+02  8.0809130441e+01  4.471536e-14 9.
        5     1     3     0   103     0  6.7614978674e+00 -7.4351828564e+01  4.4065378304e+01  8.6825744047e+01  4.8000000000e+00 0. 9.
      -24     2     4     0     0     0 -5.6000983476e+01 -1.5196451298e+01 -1.0675281045e+02  1.4616006554e+02  8.1237675610e+01  6.987152e-14 9.
       -5     1     4     0     0   102 -2.5525268095e+01  5.2046508140e+01  2.7769941968e+01  6.4456093566e+01  4.8000000000e+00 0. 9.
       -1     1     5     0     0   104  3.2563981709e+01  3.5163897111e+01 -2.6047463408e+01  5.4548068845e+01  3.3000000000e-01 0. 9.
        2     1     5     0   104     0  4.2200771995e+01  2.3378746119e+00  4.7736789296e+01  6.3759554319e+01  3.3000000000e-01 0. 9.
       11     1     7     0     0     0  5.5999425955e+00  2.2766997678e+01 -1.0366061133e+01  2.5634951999e+01  5.1100000000e-04 0. 9.
      -12     1     7     0     0     0 -6.1600926072e+01 -3.7963448976e+01 -9.6386749312e+01  1.2052511354e+02  0.0000000000e+00 0. 9.
#pdf   21   21  3.096318e-02  3.299828e-02  1.943091e+02  3.101168e+00  2.916623e+00
</event>
<event>
    12  9999  1.000000e+00  1.758780e+02  7.876155e-03  1.074108e-01
       21    -1     0     0   101   102  0.0000000000e+00  0.0000000000e+00  8.9060935838e+02  8.9060935838e+02  0.0000000000e+00 0. 9.
       21    -1     0     0   102   103  0.0000000000e+00  0.0000000000e+00 -3.4733654724e+01  3.4733654724e+01  0.0000000000e+00 0. 9.
        6     2     1     2   101     0 -3.0668610917e+01 -2.6372056746e+01  4.2642280318e+02  4.6142207854e+02  1.7157470215e+02  1.840085e-13 9.
       -6     2     1     2     0   103  3.0668610917e+01  2.6372056746e+01  4.2945290047e+02  4.6392093456e+02  1.7075359653e+02  1.787251e-13 9.
       24     2     3     0     0     0  4.7764678162e+00 -6.1857016436e+01  1.7557764542e+02  2.0556690634e+02  8.7069732297e+01  1.538073e-13 9.
        5     1     3     0   101     0 -3.5445078733e+01  3.5484959690e+01  2.5084515776e+02  2.5585517220e+02  4.8000000000e+00 0. 9.
      -24     2     4     0     0     0 -1.6907268602e+01  1.2692894973e+01  3.9349184488e+02  4.0254649934e+02  8.2224612110e+01  4.024784e-14 9.
       -5     1     4     0     0   103  4.7575879519e+01  1.3679161773e+01  3.5961055597e+01  6.1374435219e+01  4.8000000000e+00 0. 9.
       -3     1     5     0     0   104  2.7617502098e+01 -2.9149589222e+01  1.5603265775e+02  1.6111755105e+02  5.0000000000e-01 0. 9.
        4     1     5     0   104     0 -2.2841034282e+01 -3.2707427214e+01  1.9544987675e+01  4.4449355285e+01  1.5000000000e+00 0. 9.
        3     1     7     0   105     0  3.0042067808e+01  1.7606093256e+01  1.1784869407e+02  1.2288639083e+02  5.0000000000e-01 0. 9.
       -4     1     7     0     0   105 -4.6949336410e+01 -4.9131982822e+00  2.7564315081e+02  2.7966010851e+02  1.5000000000e+00 0. 9.
#pdf   21   21  1.370168e-01  5.343639e-03  1.754789e+02  5.245419e-01  1.279237e+01
</event>
<event>
    12  9999  1.000000e+00  1.843799e+02  7.880403e-03  1.067891e-01
       21    -1     0     0   101   102  0.0000000000e+00  0.0000000000e+00  1.3129632058e+02  1.3129632058e+02  0.0000000000e+00 0. 9.
       21    -1     0     0   102   103  0.0000000000e+00  0.0000000000e+00 -3.6473239961e+02  3.6473239961e+02  0.0000000000e+00 0. 9.
        6     2     1     2   101     0 -6.7061414741e+01 -1.9388630709e+01  1.6742594342e+01  1.8540608857e+02  1.7094429171e+02  4.566883e-13 9.
       -6     2     1     2     0   103  6.7061414741e+01  1.9388630709e+01 -2.5017867337e+02  3.1062263161e+02  1.7036401708e+02  6.047833e-14 9.
       24     2     3     0     0     0  6.7880497643e+00 -5.7731701854e+01  1.7099372207e+01  1.0205681262e+02  8.2122941086e+01  2.294844e-13 9.
        5     1     3     0   101     0 -7.3849464505e+01  3.8343071144e+01 -3.5677786482e-01  8.3349275959e+01  4.8000000000e+00 0. 9.
      -24     2     4     0     0     0  4.2920895619e+01  7.1082504195e+01 -2.1252583904e+02  2.4209674488e+02  8.0923889801e+01  5.643447e-14 9.
       -5     1     4     0     0   103  2.4140519122e+01 -5.1693873486e+01 -3.7652834332e+01  6.8525886734e+01  4.8000000000e+00 0. 9.
       -1     1     5     0     0   104  2.4248580767e+01  3.9388503423e+00  2.7771068783e+01  3.7078961320e+01  3.3000000000e-01 0. 9.
        2     1     5     0   104     0 -1.7460531003e+01 -6.1670552196e+01 -1.0671696576e+01  6.4977851295e+01  3.3000000000e-01 0. 9.
        1     1     7     0   105     0  6.1378107398e+01  7.4136128261e+01 -1.8844333343e+02  2.1159970793e+02  3.3000000000e-01 0. 9.
       -2     1     7     0     0   105 -1.8457211779e+01 -3.0536240657e+00 -2.4082505605e+01  3.0497036951e+01  3.3000000000e-01 0. 9.
#pdf   21   21  2.019943e-02  5.611268e-02  1.841115e+02  4.580667e+00  1.682728e+00
</event>
<event>
    12  9999  1.000000e+00  2.120402e+02  7.893010e-03  1.049904e-01
       21    -1     0     0   101   102  0.0000000000e+00  0.0000000000e+00  1.2349478806e+02  1.2349478806e+02  0.0000000000e+00 0. 9.
       21    -1     0     0   102   103  0.0000000000e+00  0.0000000000e+00 -3.8233190739e+02  3.8233190739e+02  0.0000000000e+00 0. 9.
        6     2     1     2   101     0 -1.0163496688e+02 -6.9975141690e+01 -7.3469450780e+01  2.2327829584e+02  1.7096564054e+02  2.212072e-13 9.
       -6     2     1     2     0   103  1.0163496688e+02  6.9975141690e+01 -1.8536766855e+02  2.8254839962e+02  1.7391445782e+02  1.369934e-13 9.
       24     2     3     0     0     0 -1.2029875336e+01 -7.2763538508e+01 -1.5566839504e+00  1.0825076165e+02  7.9224703829e+01  2.717488e-13 9.
        5     1     3     0   101     0 -8.9605091542e+01  2.7883968185e+00 -7.1912766830e+01  1.1502753418e+02  4.8000000000e+00 0. 9.
      -24     2     4     0     0     0  1.1602606078e+02  3.9088734174e+01 -1.9585287201e+02  2.4657544805e+02  8.6319917648e+01  3.275532e-14 9.
       -5     1     4     0     0   103 -1.4391093907e+01  3.0886407516e+01  1.0485203467e+01  3.5972951573e+01  4.8000000000e+00 0. 9.
       -1     1     5     0     0   104  3.3979746956e+01 -3.0033881855e+01  1.5977175149e+00  4.5379718639e+01  3.3000000000e-01 0. 9.
        2     1     5     0   104     0 -4.6009622292e+01 -4.2729656653e+01 -3.1544014654e+00  6.2871043015e+01  3.3000000000e-01 0. 9.
        3     1     7     0   105     0  3.7652263714e+00  3.2643416809e+01 -7.2818495609e+01  7.9890881165e+01  5.0000000000e-01 0. 9.
       -4     1     7     0     0   105  1.1226083441e+02  6.4453173648e+00 -1.2303437640e+02  1.6668456688e+02  1.5000000000e+00 0. 9.
#pdf   21   21  1.899920e-02  5.882029e-02  2.108446e+02  4.818516e+00  1.580114e+00
</event>
<event>
    12  9999  1.000000e+00  2.038061e+02  7.889434e-03  1.054938e-01
        2    -1     0     0   101     0  0.0000000000e+00  0.0000000000e+00  3.5822343683e+02  3.5822343683e+02  0.0000000000e+00 0. 9.
       -2    -1     0     0     0   102  0.0000000000e+00  0.0000000000e+00 -1.5920296080e+02  1.5920296080e+02  0.0000000000e+00 0. 9.
        6     2     1     2   101     0 -1.0245633388e+02 -3.8722463253e+01 -3.5477150616e+01  2.0647721574e+02  1.7139860819e+02  1.473218e-13 9.
       -6     2     1     2     0   102  1.0245633388e+02  3.8722463253e+01  2.3449762665e+02  3.1094918189e+02  1.7234711283e+02  5.513958e-14 9.
       24     2     3     0     0     0 -2.4661132314e+01 -7.6437058514e+01  5.1441929635e+00  1.1083403701e+02  7.6203186794e+01  3.258198e-14 9.
        5     1     3     0   101     0 -7.7795201567e+01  3.7714595261e+01 -4.0621343579e+01  9.5643178725e+01  4.8000000000e+00 0. 9.
      -24     2     4     0     0     0  5.5427498329e+01  3.8922037399e+01  2.4133068497e+02  2.6318432149e+02  8.0239360701e+01  7.950153e-15 9.
       -5     1     4     0     0   102  4.7028835552e+01 -1.9957414551e-01 -6.8330583141e+00  4.7764860401e+01  4.8000000000e+00 0. 9.
       -3     1     5     0     0   103  1.4335042986e+00 -4.6426937926e+01 -3.1991241594e+01  5.6402172285e+01  5.0000000000e-01 0. 9.
        4     1     5     0   103     0 -2.6094636613e+01 -3.0010120589e+01  3.7135434558e+01  5.4431864726e+01  1.5000000000e+00 0. 9.
        1     1     7     0   104     0  2.4778614002e+01  9.5707530727e+00  1.0629675335e+01  2.8612548365e+01  3.3000000000e-01 0. 9.
       -2     1     7     0     0   104  3.0648884327e+01  2.9351284326e+01  2.3070100963e+02  2.3457177312e+02  3.3000000000e-01 0. 9.
#pdf    2   -2  5.511130e-02  2.449276e-02  2.034065e+02  6.177548e-01  2.888489e-01
</event>
<event>
    12  9999  1.000000e+00  2.035982e+02  7.889341e-03  1.055068e-01
       21    -1     0     0   101   102  0.0000000000e+00  0.0000000000e+00  3.7876997644e+02  3.7876997644e+02  0.0000000000e+00 0. 9.
       21    -1     0     0   103   101  0.0000000000e+00  0.0000000000e+00 -1.1130505307e+02  1.1130505307e+02  0.0000000000e+00 0. 9.
        6     2     1     2   103     0 -2.9793071201e+01 -1.0593970710e+02  1.0207720729e+02  2.2785290411e+02  1.7142444700e+02  1.546639e-13 9.
       -6     2     1     2     0   102  2.9793071201e+01  1.0593970710e+02  1.6538771607e+02  2.6222212540e+02  1.7116219731e+02  9.256527e-14 9.
       24     2     3     0     0     0  1.2940910939e+01 -1.0023728290e+02  1.2389614701e+02  1.7929554625e+02  8.1127415855e+01  6.652911e-14 9.
        5     1     3     0   103     0 -4.2733982141e+01 -5.7024241998e+00 -2.1818939720e+01  4.8557357855e+01  4.8000000000e+00 0. 9.
      -24     2     4     0     0     0  7.2570635917e+01  1.1618903481e+02  1.2513507817e+02  2.0240336898e+02  8.0882303239e+01  1.787839e-14 9.
       -5     1     4     0     0   102 -4.2777564715e+01 -1.0249327710e+01  4.0252637903e+01  5.9818756420e+01  4.8000000000e+00 0. 9.
       -3     1     5     0     0   104  1.7680869892e+01  6.6464298620e+00  3.6652750039e+01  4.1236661789e+01  5.0000000000e-01 0. 9.
        4     1     5     0   104     0 -4.7399589529e+00 -1.0688371276e+02  8.7243396972e+01  1.3805888447e+02  1.5000000000e+00 0. 9.
        1     1     7     0   105     0  3.6794588021e+01  9.4624047128e+01  4.3003753514e+01  1.1025871267e+02  3.3000000000e-01 0. 9.
       -2     1     7     0     0   105  3.5776047896e+01  2.1564987682e+01  8.2131324658e+01  9.2144656312e+01  3.3000000000e-01 0. 9.
#pdf   21   21  5.827230e-02  1.712385e-02  2.034880e+02  1.601246e+00  5.267936e+00
</event>
<event>
    12  9999  1.000000e+00  1.771510e+02  7.876803e-03  1.073154e-01
       21    -1     0     0   101   102  0.0000000000e+00  0.0000000000e+00  1.3398092638e+03  1.3398092638e+03  0.0000000000e+00 0. 9.
       21    -1     0     0   103   101  0.0000000000e+00  0.0000000000e+00 -2.5423775274e+01  2.5423775274e+01  0.0000000000e+00 0. 9.
        6     2     1     2   103     0  3.7107309025e+00  4.9228406950e+01  4.6699703586e+02  4.9960245286e+02  1.7052616755e+02  5.327098e-15 9.
       -6     2     1     2     0   102 -3.7107309025e+00 -4.9228406950e+01  8.4738845265e+02  8.6563058621e+02  1.6974073323e+02  4.565760e-14 9.
       24     2     3     0     0     0 -9.3848686680e+00 -4.1874970284e+01  2.5227236054e+02  2.6593378516e+02  7.2372959722e+01  8.649668e-14 9.
        5     1     3     0   103     0  1.3095599571e+01  9.1103377234e+01  2.1472467532e+02  2.3366866770e+02  4.8000000000e+00 0. 9.
      -24     2     4     0     0     0 -3.1347506765e+01 -8.6757603593e+01  4.9090672894e+02  5.0608296583e+02  8.1369550945e+01  2.336319e-13 9.
       -5     1     4     0     0   102  2.7636775862e+01  3.7529196643e+01  3.5648172371e+02  3.5954762038e+02  4.8000000000e+00 0. 9.
      -11     1     5     0     0     0 -1.6702928060e+01  1.5351545705e+01  4.0257429636e+01  4.6209505542e+01  5.1100000000e-04 0. 9.
       12     1     5     0     0     0  7.3180593921e+00 -5.7226515990e+01  2.1201493091e+02  2.1972427962e+02  0.0000000000e+00 0. 9.
       15     1     7     0     0     0 -9.2067724476e+00 -7.3064860000e+01  4.5914089339e+02  4.6501264015e+02  1.7768200000e+00  1.695176e-02 9.
      -16     1     7     0     0     0 -2.2140734317e+01 -1.3692743593e+01  3.1765835550e+01  4.1070325679e+01  0.0000000000e+00 0. 9.
#pdf   21   21  2.061245e-01  3.911350e-03  1.767742e+02  2.569060e-01  1.584353e+01
</event>
<event>
    12  9999  1.000000e+00  1.968408e+02  7.886296e-03  1.059398e-01
       21    -1     0     0   101   102  0.0000000000e+00  0.0000000000e+00  4.4233886502e+02  4.4233886502e+02  0.0000000000e+00 0. 9.
       21    -1     0     0   102   103  0.0000000000e+00  0.0000000000e+00 -1.7821662814e+02  1.7821662814e+02  0.0000000000e+00 0. 9.
        6     2     1     2   101     0  2.1604757329e+01  1.1052773213e+02  3.5565465233e+02  4.1043722664e+02  1.7112960052e+02  8.590135e-14 9.
       -6     2     1     2     0   103 -2.1604757329e+01 -1.1052773213e+02 -9.1532415449e+01  2.1011826652e+02  1.5194853649e+02  1.059279e-13 9.
       24     2     3     0     0     0 -2.2473817341e+01  1.3171224694e+02  2.6972392274e+02  3.1144816309e+02  7.9973591499e+01  1.741863e-13 9.
        5     1     3     0   101     0  4.4078574670e+01 -2.1184514811e+01  8.5930729594e+01  9.8989063544e+01  4.8000000000e+00 0. 9.
      -24     2     4     0     0     0 -6.5083754842e+01 -9.6513861949e+01 -8.1162526933e+01  1.6302913434e+02  8.0251617881e+01  8.794389e-15 9.
       -5     1     4     0     0   103  4.3478997513e+01 -1.4013870180e+01 -1.0369888516e+01  4.7089132186e+01  4.8000000000e+00 0. 9.
       -3     1     5     0     0   104 -3.9487133851e+01  1.2889510486e+02  2.5612044431e+02  2.8943239934e+02  5.0000000000e-01 0. 9.
        4     1     5     0   104     0  1.7013316510e+01  2.8171420826e+00  1.3603478430e+01  2.2015763752e+01  1.5000000000e+00 0. 9.
        3     1     7     0   105     0 -7.8846533139e+00 -7.4654092137e+01 -2.2882550266e+01  7.8480967995e+01  5.0000000000e-01 0. 9.
       -4     1     7     0     0   105 -5.7199101528e+01 -2.1859769811e+01 -5.8279976667e+01  8.4548166344e+01  1.5000000000e+00 0. 9.
#pdf   21   21  6.805213e-02  2.741794e-02  1.891336e+02  1.343687e+00  3.480965e+00
</event>
<event>
    12  9999  1.000000e+00  1.782797e+02  7.877375e-03  1.072314e-01
       21    -1     0     0   101   102  0.0000000000e+00  0.0000000000e+00  1.9370726101e+02  1.9370726101e+02  0.0000000000e+00 0. 9.
       21    -1     0     0   103   101  0.0000000000e+00  0.0000000000e+00 -1.6773449981e+02  1.6773449981e+02  0.0000000000e+00 0. 9.
        6     2     1     2   103     0  2.2513948918e+01 -4.8418665114e+01 -1.3715794569e+01  1.7832980825e+02  1.6959408145e+02  7.671048e-14 9.
       -6     2     1     2     0   102 -2.2513948918e+01  4.8418665114e+01  3.9688555764e+01  1.8311195258e+02  1.7059765734e+02  5.601604e-15 9.
       24     2     3     0     0     0 -5.3083828722e+00  1.1933259283e+01 -5.5305817414e+01  9.9785509124e+01  8.2023367314e+01  1.086579e-13 9.
        5     1     3     0   103     0  2.7822331790e+01 -6.0351924396e+01  4.1590022845e+01  7.8544299124e+01  4.8000000000e+00 0. 9.
      -24     2     4     0     0     0  3.8592719455e+01 -1.4787935728e+01  1.2547105670e+01  9.0977281455e+01  8.0070936314e+01  1.920397e-14 9.
       -5     1     4     0     0   102 -6.1106668372e+01  6.3206600842e+01  2.7141450094e+01  9.2134671122e+01  4.8000000000e+00 0. 9.
      -13     1     5     0     0     0 -3.6036215893e+01  3.0405211898e+01 -3.3198949950e+01  5.7665129916e+01  1.0566000000e-01  8.067636e+05 9.
       14     1     5     0     0     0  3.0727833020e+01 -1.8471952616e+01 -2.2106867465e+01  4.2120379208e+01  0.0000000000e+00 0. 9.
        1     1     7     0   104     0  5.0997555211e+01  1.7105931569e+01 -1.9126448085e+00  5.3825000162e+01  3.3000000000e-01 0. 9.
       -2     1     7     0     0   104 -1.2404835756e+01 -3.1893867297e+01  1.4459750479e+01  3.7152281292e+01  3.3000000000e-01 0. 9.
#pdf   21   21  2.980112e-02  2.580531e-02  1.778016e+02  3.226099e+00  3.687006e+00
</event>
<event>
    12  9999  1.000000e+00  1.903414e+02  7.883270e-03  1.063742e-01
       21    -1     0     0   101   102  0.0000000000e+00  0.0000000000e+00  9.6612074724e+02  9.6612074724e+02  0.0000000000e+00 0. 9.
       21    -1     0     0   103   101  0.0000000000e+00  0.0000000000e+00 -5.7384051824e+01  5.7384051824e+01  0.0000000000e+00 0. 9.
        6     2     1     2   103     0 -7.0232462373e+01  4.5039464211e+01  1.5336198741e+02  2.4455436545e+02  1.7124773391e+02  9.453758e-13 9.
       -6     2     1     2     0   102  7.0232462373e+01 -4.5039464211e+01  7.5537470800e+02  7.7895043362e+02  1.7091423706e+02  5.093028e-14 9.
       24     2     3     0     0     0  2.8098659650e+01  2.9466035395e+01  7.4938771669e+01  1.1772857150e+02  8.1156731897e+01  3.231651e-13 9.
        5     1     3     0   103     0 -9.8331122023e+01  1.5573428816e+01  7.8423215744e+01  1.2682579395e+02  4.8000000000e+00 0. 9.
      -24     2     4     0     0     0  1.0053314942e+02 -3.4923497604e+01  3.9538115276e+02  4.1751044657e+02  8.1622008206e+01  2.974712e-14 9.
       -5     1     4     0     0   102 -3.0300687044e+01 -1.0115966607e+01  3.5999355525e+02  3.6143998704e+02  4.8000000000e+00 0. 9.
       -1     1     5     0     0   104 -9.3523612792e+00 -1.3145210146e+01 -7.3888826761e+00  1.7747329334e+01  3.3000000000e-01 0. 9.
        2     1     5     0   104     0  3.7451020929e+01  4.2611245540e+01  8.2327654345e+01  9.9981242166e+01  3.3000000000e-01 0. 9.
        1     1     7     0   105     0 -2.8684529942e-01 -3.1753160375e+01  7.0385243246e+01  7.7217464611e+01  3.3000000000e-01 0. 9.
       -4     1     7     0     0   105  1.0081999472e+02 -3.1703372294e+00  3.2499590951e+02  3.4029298196e+02  1.5000000000e+00 0. 9.
#pdf   21   21  1.486340e-01  8.828316e-03  1.901916e+02  4.559948e-01  8.918110e+00
</event>
<event>
    12  9999  1.000000e+00  1.855924e+02  7.880993e-03  1.067034e-01
       21    -1     0     0   101   102  0.0000000000e+00  0.0000000000e+00  5.3284722758e+01  5.3284722758e+01  0.0000000000e+00 0. 9.
       21    -1     0     0   102   103  0.0000000000e+00  0.0000000000e+00 -7.6649741841e+02  7.6649741841e+02  0.0000000000e+00 0. 9.
        6     2     1     2   101     0  6.3690552746e+01  3.0758582204e+01 -1.9335483528e+02  2.6757522824e+02  1.7090299457e+02  5.340590e-15 9.
       -6     2     1     2     0   103 -6.3690552746e+01 -3.0758582204e+01 -5.1985786037e+02  5.5220691292e+02  1.7227217653e+02  3.652980e-14 9.
       24     2     3     0     0     0 -1.3370637150e+01  2.8746013575e+01 -1.6863119173e+02  1.8647790417e+02  7.3023439290e+01  6.965807e-14 9.
        5     1     3     0   101     0  7.7061189896e+01  2.0125686291e+00 -2.4723643549e+01  8.1097324068e+01  4.8000000000e+00 0. 9.
      -24     2     4     0     0     0 -6.1420528304e+01  2.2996328566e+00 -1.4964307495e+02  1.8048117272e+02  8.0016462149e+01  1.696500e-13 9.
       -5     1     4     0     0   103 -2.2700244420e+00 -3.3058215061e+01 -3.7021478541e+02  3.7172574021e+02  4.8000000000e+00 0. 9.
      -11     1     5     0     0     0 -2.9506811770e+01  2.9079791965e+01 -4.2618612727e+01  5.9435952021e+01  5.1100000000e-04 0. 9.
       12     1     5     0     0     0  1.6136174621e+01 -3.3377838982e-01 -1.2601257900e+02  1.2704195215e+02  0.0000000000e+00 0. 9.
       11     1     7     0     0     0 -9.5058119912e+00  3.6713608428e+01 -4.6667539771e+01  6.0134089948e+01  5.1100000000e-04 0. 9.
      -12     1     7     0     0     0 -5.1914716313e+01 -3.4413975571e+01 -1.0297553518e+02  1.2034708277e+02  0.0000000000e+00 0. 9.
#pdf   21   21  8.197650e-03  1.179227e-01  1.849606e+02  9.419911e+00  6.533354e-01
</event>
<event>
    12  9999  1.000000e+00  1.698270e+02  7.873007e-03  1.078868e-01
       21    -1     0     0   101   102  0.0000000000e+00  0.0000000000e+00  3.4087308381e+01  3.4087308381e+01  0.0000000000e+00 0. 9.
       21    -1     0     0   102   103  0.0000000000e+00  0.0000000000e+00 -1.0713646352e+03  1.0713646352e+03  0.0000000000e+00 0. 9.
        6     2     1     2   101     0  1.4287474129e+01  1.1417589310e+01 -2.6378932245e+02  3.1341417583e+02  1.6825321900e+02  1.597690e-13 9.
       -6     2     1     2     0   103 -1.4287474129e+01 -1.1417589310e+01 -7.7348800439e+02  7.9203776778e+02  1.6942738679e+02  2.673774e-14 9.
       24     2     3     0     0     0  5.0731518765e+01 -5.8791243480e+00 -7.7591917137e+01  1.2283647923e+02  8.0374398445e+01  1.666719e-13 9.
        5     1     3     0   101     0 -3.6444044636e+01  1.7296713658e+01 -1.8619740532e+02  1.9057769660e+02  4.8000000000e+00 0. 9.
      -24     2     4     0     0     0  4.7222977004e+01  1.2091058836e+01 -5.7704907053e+02  5.8480001332e+02  8.1420037604e+01  9.299268e-14 9.
       -5     1     4     0     0   103 -6.1510451134e+01 -2.3508648146e+01 -1.9643893386e+02  2.0723775446e+02  4.8000000000e+00 0. 9.
      -15     1     5     0     0     0 -2.0137989752e+01  1.0050274838e+01 -1.9276768068e+01  2.9686655791e+01  1.7768200000e+00  1.768291e-02 9.
       16     1     5     0     0     0  7.0869508517e+01 -1.5929399186e+01 -5.8315149069e+01  9.3149823440e+01  0.0000000000e+00 0. 9.
        1     1     7     0   104     0  1.7100706836e+01  2.2642999794e+01 -5.0731632116e+02  5.0810933688e+02  3.3000000000e-01 0. 9.
       -2     1     7     0     0   104  3.0122270169e+01 -1.0551940958e+01 -6.9732749372e+01  7.6690676442e+01  3.3000000000e-01 0. 9.
#pdf   21   21  5.244201e-03  1.648253e-01  1.692443e+02  1.294036e+01  3.902122e-01
</event>
<event>
    12  9999  1.000000e+00  1.924522e+02  7.884264e-03  1.062311e-01
       21    -1     0     0   101   102  0.0000000000e+00  0.0000000000e+00  1.8522635076e+02  1.8522635076e+02  0.0000000000e+00 0. 9.
       21    -1     0     0   102   103  0.0000000000e+00  0.0000000000e+00 -2.2302897008e+02  2.2302897008e+02  0.0000000000e+00 0. 9.
        6     2     1     2   101     0  8.2309988579e+01  3.5732489122e+01 -8.4578995558e+01  2.1051400891e+02  1.7061886313e+02  2.147001e-14 9.
       -6     2     1     2     0   103 -8.2309988579e+01 -3.5732489122e+01  4.6776376236e+01  1.9774131193e+02  1.6988776316e+02  1.030593e-14 9.
       24     2     3     0     0     0  4.4246234890e+01 -4.5394418616e+01 -5.3567630854e+01  1.1556576382e+02  8.0421217031e+01  4.044722e-14 9.
        5     1     3     0   101     0  3.8063753689e+01  8.1126907738e+01 -3.1011364705e+01  9.4948245086e+01  4.8000000000e+00 0. 9.
      -24     2     4     0     0     0 -5.5521969444e+01  2.9797863857e+01  6.6954986540e+01  1.2397111846e+02  8.3158079636e+01  1.456823e-13 9.
       -5     1     4     0     0   103 -2.6788019136e+01 -6.5530352979e+01 -2.0178610304e+01  7.3770193470e+01  4.8000000000e+00 0. 9.
       -3     1     5     0     0   104  4.7834611651e+01  1.2522127714e+00 -5.0014988183e+00  4.8114271261e+01  5.0000000000e-01 0. 9.
        4     1     5     0   104     0 -3.5883767605e+00 -4.6646631387e+01 -4.8566132036e+01  6.7451492559e+01  1.5000000000e+00 0. 9.
        1     1     7     0   105     0 -3.5619847869e+01  3.1790729051e+01 -6.1862675791e+00  4.8143564704e+01  3.3000000000e-01 0. 9.
       -2     1     7     0     0   105 -1.9902121574e+01 -1.9928651941e+00  7.3141254119e+01  7.5827553758e+01  3.3000000000e-01 0. 9.
#pdf   21   21  2.849636e-02  3.431215e-02  1.921291e+02  3.356189e+00  2.808960e+00
</event>
<event>
    12  9999  1.000000e+00  2.303888e+02  7.900514e-03  1.039512e-01
       21    -1     0     0   101   102  0.0000000000e+00  0.0000000000e+00  6.3393090599e+02  6.3393090599e+02  0.0000000000e+00 0. 9.
       21    -1     0     0   103   101  0.0000000000e+00  0.0000000000e+00 -2.0177500280e+02  2.0177500280e+02  0.0000000000e+00 0. 9.
        6     2     1     2   103     0  7.1677025325e+00 -1.4821045046e+02 -1.0323862558e+02  2.5313573312e+02  1.7720545135e+02  3.381045e-13 9.
       -6     2     1     2     0   102 -7.1677025325e+00  1.4821045046e+02  5.3539452877e+02  5.8257017567e+02  1.7527976085e+02  2.089261e-13 9.
       24     2     3     0     0     0 -2.5016772083e+01 -1.0061766398e+02 -1.3301639202e+02  1.8824606441e+02  8.3626951589e+01  5.156469e-14 9.
        5     1     3     0   103     0  3.2184474616e+01 -4.7592786475e+01  2.9777766437e+01  6.4889668706e+01  4.8000000000e+00 0. 9.
      -24     2     4     0     0     0  5.7343393727e+01  6.1973260206e+01  3.4079079527e+02  3.6010177878e+02  8.0037336020e+01  3.150099e-14 9.
       -5     1     4     0     0   102 -6.4511096260e+01  8.6237190249e+01  1.9460373350e+02  2.2246839689e+02  4.8000000000e+00 0. 9.
       -3     1     5     0     0   104  2.6782028292e+01 -1.4108649799e+01 -1.7752648995e+01  3.5096119229e+01  5.0000000000e-01 0. 9.
        4     1     5     0   104     0 -5.1798800375e+01 -8.6509014181e+01 -1.1526374302e+02  1.5314994518e+02  1.5000000000e+00 0. 9.
        3     1     7     0   105     0  7.4631086546e+01  4.4240719458e+01  2.1422050471e+02  2.3112272709e+02  5.0000000000e-01 0. 9.
       -4     1     7     0     0   105 -1.7287692819e+01  1.7732540747e+01  1.2657029056e+02  1.2897905170e+02  1.5000000000e+00 0. 9.
#pdf   21   21  9.752783e-02  3.104231e-02  2.296535e+02  8.340554e-01  3.072528e+00
</event>
<event>
    12  9999  1.000000e+00  2.366058e+02  7.902925e-03  1.036221e-01
       21    -1     0     0   101   102  0.0000000000e+00  0.0000000000e+00  2.6141787772e+02  2.6141787772e+02  0.0000000000e+00 0. 9.
       21    -1     0     0   102   103  0.0000000000e+00  0.0000000000e+00 -6.6088184173e+02  6.6088184173e+02  0.0000000000e+00 0. 9.
        6     2     1     2   101     0 -1.6261058736e+02 -1.9262464378e+01  1.7920808884e+02  2.9740413451e+02  1.7181511710e+02  2.484614e-13 9.
       -6     2     1     2     0   103  1.6261058736e+02  1.9262464378e+01 -5.7867205284e+02  6.2489558494e+02  1.6976425327e+02  9.723189e-14 9.
       24     2     3     0     0     0 -1.3551798071e+02 -5.2860582980e+01  7.2914911260e+01  1.8258200029e+02  8.2826555016e+01  9.730518e-14 9.
        5     1     3     0   101     0 -2.7092606647e+01  3.3598118602e+01  1.0629317758e+02  1.1482213422e+02  4.8000000000e+00 0. 9.
      -24     2     4     0     0     0  9.3395301192e+01 -5.1029666959e+01 -3.9138825640e+02  4.1316462364e+02  7.8698982084e+01  1.150399e-13 9.
       -5     1     4     0     0   103  6.9215286164e+01  7.0292131338e+01 -1.8728379644e+02  2.1173096131e+02  4.8000000000e+00 0. 9.
       -1     1     5     0     0   104  7.2644144178e+00 -1.7034515443e+01  1.6909205660e+01  2.5079405281e+01  3.3000000000e-01 0. 9.
        2     1     5     0   104     0 -1.4278239513e+02 -3.5826067537e+01  5.6005705600e+01  1.5750259500e+02  3.3000000000e-01 0. 9.
        1     1     7     0   105     0  1.3288197368e+01 -8.5465076242e+00 -5.4481265970e+00  1.6715560573e+01  3.3000000000e-01 0. 9.
       -2     1     7     0     0   105  8.0107103824e+01 -4.2483159335e+01 -3.8594012980e+02  3.9644906306e+02  3.3000000000e-01 0. 9.
#pdf   21   21  4.021814e-02  1.016741e-01  2.358668e+02  2.370371e+00  7.852993e-01
</event>
<event>
    12  9999  1.000000e+00  2.160911e+02  7.894720e-03  1.047516e-01
       21    -1     0     0   101   102  0.0000000000e+00  0.0000000000e+00  1.8911416858e+02  1.8911416858e+02  0.0000000000e+00 0. 9.
       21    -1     0     0   103   101  0.0000000000e+00  0.0000000000e+00 -3.1478565385e+02  3.1478565385e+02  0.0000000000e+00 0. 9.
        6     2     1     2   103     0 -4.1808848197e+01 -1.2185901015e+02 -1.7994284625e+02  2.8160732967e+02  1.7414264860e+02  1.464636e-15 9.
       -6     2     1     2     0   102  4.1808848197e+01  1.2185901015e+02  5.4271360984e+01  2.2229249276e+02  1.7283221220e+02  1.196401e-13 9.
       24     2     3     0     0     0  2.1825267572e+01 -1.5821456087e+01 -9.8310303948e+01  1.3335020328e+02  8.5969180964e+01  8.481320e-14 9.
        5     1     3     0   103     0 -6.3634115769e+01 -1.0603755406e+02 -8.1632542305e+01  1.4825712638e+02  4.8000000000e+00 0. 9.
      -24     2     4     0     0     0  6.0986484704e+01  1.4421150837e+02  2.0486749498e+01  1.7721638055e+02  8.0433998840e+01  1.689728e-13 9.
       -5     1     4     0     0   102 -1.9177636507e+01 -2.2352498220e+01  3.3784611486e+01  4.5076112210e+01  4.8000000000e+00 0. 9.
       -1     1     5     0     0   104  5.0371957768e+01 -2.6881471434e+01 -4.8658778970e+01  7.5018219832e+01  3.3000000000e-01 0. 9.
        2     1     5     0   104     0 -2.8546690196e+01  1.1060015347e+01 -4.9651524978e+01  5.8331983451e+01  3.3000000000e-01 0. 9.
       11     1     7     0     0     0  7.1840706128e+00  2.5557115925e+01  3.7374750507e+01  4.5843745709e+01  5.1100000000e-04 0. 9.
      -12     1     7     0     0     0  5.3802414091e+01  1.1865439244e+02 -1.6888001009e+01  1.3137263484e+02  0.0000000000e+00 0. 9.
#pdf   21   21  2.909449e-02  4.842856e-02  2.155657e+02  3.277299e+00  1.958380e+00
</event>
<event>
    12  9999  1.000000e+00  2.915719e+02  7.921888e-03  1.011124e-01
       21    -1     0     0   101   102  0.0000000000e+00  0.0000000000e+00  4.6117869972e+02  4.6117869972e+02  0.0000000000e+00 0. 9.
       21    -1     0     0   102   103  0.0000000000e+00  0.0000000000e+00 -1.9676587651e+02  1.9676587651e+02  0.0000000000e+00 0. 9.
        6     2     1     2   101     0 -2.2231074918e+02  7.7364826484e+01  4.9434854903e+01  2.9548836374e+02  1.7164551450e+02  2.170660e-13 9.
       -6     2     1     2     0   103  2.2231074918e+02 -7.7364826484e+01  2.1497796830e+02  3.6245621250e+02  1.7248650250e+02  1.146528e-13 9.
       24     2     3     0     0     0 -1.2154610931e+02  1.0128018469e+02  7.0265472407e+01  1.8974144117e+02  7.7675255942e+01  6.779396e-14 9.
        5     1     3     0   101     0 -1.0076463987e+02 -2.3915358209e+01 -2.0830617505e+01  1.0574692256e+02  4.8000000000e+00 0. 9.
      -24     2     4     0     0     0  2.1196998551e+02 -5.3495730946e+01  1.1656336300e+02  2.6054870712e+02  8.0656947635e+01  1.286099e-14 9.
       -5     1     4     0     0   103  1.0340763666e+01 -2.3869095539e+01  9.8414605304e+01  1.0190750538e+02  4.8000000000e+00 0. 9.
      -13     1     5     0     0     0 -1.0587329740e+02  4.9488589903e+01  2.5748040152e+01  1.1967141835e+02  1.0566000000e-01  4.270499e+05 9.
       14     1     5     0     0     0 -1.5672811905e+01  5.1791594791e+01  4.4517432255e+01  7.0070022824e+01  0.0000000000e+00 0. 9.
        3     1     7     0   104     0  1.0078171311e+02 -6.6173781643e+01  6.9262639010e+01  1.3904490727e+02  5.0000000000e-01 0. 9.
       -4     1     7     0     0   104  1.1118827240e+02  1.2678050698e+01  4.7300723989e+01  1.2150379985e+02  1.5000000000e+00 0. 9.
#pdf   21   21  7.095057e-02  3.027167e-02  2.913238e+02  1.232873e+00  3.117755e+00
</event>
<event>
    12  9999  1.000000e+00  3.173211e+02  7.929596e-03  1.001303e-01
       21    -1     0     0   101   102  0.0000000000e+00  0.0000000000e+00  3.1374425195e+02  3.1374425195e+02  0.0000000000e+00 0. 9.
       21    -1     0     0   103   101  0.0000000000e+00  0.0000000000e+00 -3.4376730074e+02  3.4376730074e+02  0.0000000000e+00 0. 9.
        6     2     1     2   103     0  1.8781416882e+00  2.6681329598e+02 -9.9736081375e+01  3.3274584046e+02  1.7198734281e+02  1.258605e-13 9.
       -6     2     1     2     0   102 -1.8781416882e+00 -2.6681329598e+02  6.9713032582e+01  3.2476571223e+02  1.7152258919e+02  2.384785e-13 9.
       24     2     3     0     0     0  1.6736471217e+01  1.6238507005e+02  8.9228729195e+00  1.8123401691e+02  7.8212088449e+01  1.292979e-13 9.
        5     1     3     0   103     0 -1.4858329529e+01  1.0442822593e+02 -1.0865895429e+02  1.5151182355e+02  4.8000000000e+00 0. 9.
      -24     2     4     0     0     0  2.0694270958e+01 -2.2661270806e+02  1.0988298491e+00  2.4196142552e+02  8.2234735401e+01  5.242964e-13 9.
       -5     1     4     0     0   102 -2.2572412646e+01 -4.0200587913e+01  6.8614202732e+01  8.2804286712e+01  4.8000000000e+00 0. 9.
       -3     1     5     0     0   104 -2.7667605439e+01  3.4010941687e+01  1.1628382394e+01  4.5361986533e+01  5.0000000000e-01 0. 9.
        4     1     5     0   104     0  4.4404076655e+01  1.2837412836e+02 -2.7055094748e+00  1.3587203038e+02  1.5000000000e+00 0. 9.
        3     1     7     0   105     0  3.6179692215e+01 -4.1619143379e+01  1.0234027475e+01  5.6090182231e+01  5.0000000000e-01 0. 9.
       -4     1     7     0     0   105 -1.5485421257e+01 -1.8499356468e+02 -9.1351976263e+00  1.8587124329e+02  1.5000000000e+00 0. 9.
#pdf   21   21  4.826835e-02  5.288728e-02  3.171953e+02  1.918422e+00  1.732736e+00
</event>
<event>
    12  9999  1.000000e+00  1.889329e+02  7.882600e-03  1.064707e-01
       21    -1     0     0   101   102  0.0000000000e+00  0.0000000000e+00  3.8389343005e+02  3.8389343005e+02  0.0000000000e+00 0. 9.
       21    -1     0     0   103   101  0.0000000000e+00  0.0000000000e+00 -9.6362528951e+01  9.6362528951e+01  0.0000000000e+00 0. 9.
        6     2     1     2   103     0  4.5911976116e+01  6.8266353426e+01  1.8825648593e+02  2.6626180754e+02  1.6937131131e+02  1.644181e-14 9.
       -6     2     1     2     0   102 -4.5911976116e+01 -6.8266353426e+01  9.9274415168e+01  2.1399415147e+02  1.7079192836e+02  8.449395e-15 9.
       24     2     3     0     0     0  8.0588576860e+01  1.0607987361e+01  8.4830938921e+01  1.4278372207e+02  8.1140957429e+01  1.820797e-15 9.
        5     1     3     0   103     0 -3.4676600744e+01  5.7658366064e+01  1.0342554701e+02  1.2347808547e+02  4.8000000000e+00 0. 9.
      -24     2     4     0     0     0 -1.6286197204e+01 -2.5937588947e+01  1.2800214664e+02  1.5468366644e+02  8.1268003409e+01  6.595335e-14 9.
       -5     1     4     0     0   102 -2.9625778912e+01 -4.2328764479e+01 -2.8727731476e+01  5.9310485028e+01  4.8000000000e+00 0. 9.
       -1     1     5     0     0   104  8.1752619327e+01  3.0413975976e+01  8.6532807996e+01  1.2286796353e+02  3.3000000000e-01 0. 9.
        2     1     5     0   104     0 -1.1640424665e+00 -1.9805988614e+01 -1.7018690750e+00  1.9915758539e+01  3.3000000000e-01 0. 9.
        3     1     7     0   105     0  6.3587002515e+00  2.3160636965e+01  7.5786886101e+01  7.9503146343e+01  5.0000000000e-01 0. 9.
       -4     1     7     0     0   105 -2.2644897456e+01 -4.9098225912e+01  5.2215260543e+01  7.5180520097e+01  1.5000000000e+00 0. 9.
#pdf   21   21  5.906053e-02  1.482500e-02  1.882946e+02  1.585674e+00  5.941856e+00
</event>
<event>
    12  9999  1.000000e+00  1.787812e+02  7.877628e-03  1.071944e-01
       21    -1     0     0   101   102  0.0000000000e+00  0.0000000000e+00  6.2409652401e+02  6.2409652401e+02  0.0000000000e+00 0. 9.
       21    -1     0     0   102   103  0.0000000000e+00  0.0000000000e+00 -5.1989483905e+01  5.1989483905e+01  0.0000000000e+00 0. 9.
        6     2     1     2   101     0 -5.2049171523e+01  4.5625489439e+00  3.2614754762e+02  3.7158201890e+02  1.7020881539e+02  2.374943e-13 9.
       -6     2     1     2     0   103  5.2049171523e+01 -4.5625489439e+00  2.4595949248e+02  3.0450398902e+02  1.7174595855e+02  7.713161e-15 9.
       24     2     3     0     0     0 -9.3176819803e+01  1.0422557956e+01  2.9301935554e+02  3.1823091517e+02  8.1363524896e+01  8.340478e-15 9.
        5     1     3     0   101     0  4.1127648279e+01 -5.8600090119e+00  3.3128192083e+01  5.3351103731e+01  4.8000000000e+00 0. 9.
      -24     2     4     0     0     0 -1.6027569929e+01  1.1589976472e+00  2.1375166143e+02  2.2882332304e+02  8.0075677513e+01  9.581631e-15 9.
       -5     1     4     0     0   103  6.8076741453e+01 -5.7215465911e+00  3.2207831053e+01  7.5680665981e+01  4.8000000000e+00 0. 9.
       -3     1     5     0     0   104 -6.7325205891e+01  3.7405302567e+01  1.3105632322e+02  1.5201266350e+02  5.0000000000e-01 0. 9.
        2     1     5     0   104     0 -2.5851613912e+01 -2.6982744612e+01  1.6196303232e+02  1.6621825167e+02  3.3000000000e-01 0. 9.
        3     1     7     0   105     0  2.1903207113e+01  2.7688945148e+01  9.6510150770e+01  1.0276617813e+02  5.0000000000e-01 0. 9.
       -4     1     7     0     0   105 -3.7930777042e+01 -2.6529947501e+01  1.1724151066e+02  1.2605714491e+02  1.5000000000e+00 0. 9.
#pdf   21   21  9.601485e-02  7.998382e-03  1.780477e+02  8.744409e-01  9.584188e+00
</event>
<event>
    12  9999  1.000000e+00  1.968398e+02  7.886296e-03  1.059399e-01
       21    -1     0     0   101   102  0.0000000000e+00  0.0000000000e+00  1.8788014933e+02  1.8788014933e+02  0.0000000000e+00 0. 9.
       21    -1     0     0   102   103  0.0000000000e+00  0.0000000000e+00 -2.0747506620e+02  2.0747506620e+02  0.0000000000e+00 0. 9.
        6     2     1     2   101     0 -1.7090254794e+00 -9.7082895039e+01  5.5057463521e+00  1.9738435550e+02  1.7176222308e+02  1.279379e-13 9.
       -6     2     1     2     0   103  1.7090254794e+00  9.7082895039e+01 -2.5100663220e+01  1.9797086002e+02  1.7068804541e+02  3.183326e-14 9.
       24     2     3     0     0     0 -1.0970174808e+01 -3.9179761842e+01 -6.2056236380e+01  1.0779527563e+02  7.8188531780e+01  7.348793e-15 9.
        5     1     3     0   101     0  9.2611493288e+00 -5.7903133197e+01  6.7561982733e+01  8.9589079869e+01  4.8000000000e+00 0. 9.
      -24     2     4     0     0     0  3.4963030822e+01  2.6753719579e+01 -4.1631907381e+01  1.1829436521e+02  1.0159806146e+02  1.324655e-13 9.
       -5     1     4     0     0   103 -3.3254005342e+01  7.0329175460e+01  1.6531244162e+01  7.9676494813e+01  4.8000000000e+00 0. 9.
      -15     1     5     0     0     0 -2.4489466532e+01 -5.6002039118e+01 -2.7486384043e+01  6.7041932799e+01  1.7768200000e+00  1.126125e-01 9.
       16     1     5     0     0     0  1.3519291724e+01  1.6822277277e+01 -3.4569852338e+01  4.0753342834e+01  0.0000000000e+00 0. 9.
        3     1     7     0   104     0 -3.2682655730e+01 -4.5274701041e+00 -1.7596479702e-01  3.2999014148e+01  5.0000000000e-01 0. 9.
       -4     1     7     0     0   104  6.7645686552e+01  3.1281189683e+01 -4.1455942584e+01  8.5295351061e+01  1.5000000000e+00 0. 9.
#pdf   21   21  2.890464e-02  3.191924e-02  1.963732e+02  3.309099e+00  3.010659e+00
</event>
<event>
    12  9999  1.000000e+00  1.952674e+02  7.885573e-03  1.060433e-01
       21    -1     0     0   101   102  0.0000000000e+00  0.0000000000e+00  2.9024348036e+02  2.9024348036e+02  0.0000000000e+00 0. 9.
       21    -1     0     0   102   103  0.0000000000e+00  0.0000000000e+00 -1.3404793573e+02  1.3404793573e+02  0.0000000000e+00 0. 9.
        6     2     1     2   101     0  6.2525906466e+01  6.9176071769e+01  1.0761548748e+02  2.2197667232e+02  1.7028720452e+02  5.058394e-14 9.
       -6     2     1     2     0   103 -6.2525906466e+01 -6.9176071769e+01  4.8580057154e+01  2.0231474378e+02  1.7284795547e+02  7.084949e-14 9.
       24     2     3     0     0     0  8.2009461673e+01  1.0365581797e+02  8.2176963550e+01  1.7466261182e+02  7.9271017565e+01  2.095256e-14 9.
        5     1     3     0   101     0 -1.9483555207e+01 -3.4479746199e+01  2.5438523930e+01  4.7314060502e+01  4.8000000000e+00 0. 9.
      -24     2     4     0     0     0 -7.4888874595e+01 -9.2373596613e+01 -4.1944790999e+00  1.4316104722e+02  7.9600671456e+01  1.904263e-13 9.
       -5     1     4     0     0   103  1.2362968129e+01  2.3197524844e+01  5.2774536254e+01  5.9153696560e+01  4.8000000000e+00 0. 9.
       -3     1     5     0     0   104  4.5466254054e+01  7.8040794420e+00  5.2482800010e+00  4.6431437159e+01  5.0000000000e-01 0. 9.
        4     1     5     0   104     0  3.6543207619e+01  9.5851738526e+01  7.6928683549e+01  1.2823117466e+02  1.5000000000e+00 0. 9.
       15     1     7     0     0     0 -5.3074887148e+01 -3.8194950709e+01  3.3655255968e+01  7.3563790338e+01  1.7768200000e+00  3.992972e-02 9.
      -16     1     7     0     0     0 -2.1813987447e+01 -5.4178645905e+01 -3.7849735068e+01  6.9597256879e+01  0.0000000000e+00 0. 9.
#pdf   21   21  4.465284e-02  2.062276e-02  1.941457e+02  2.148990e+00  4.494509e+00
</event>
<event>
    12  9999  1.000000e+00  1.972677e+02  7.886492e-03  1.059119e-01
       21    -1     0     0   101   102  0.0000000000e+00  0.0000000000e+00  9.2127985125e+02  9.2127985125e+02  0.0000000000e+00 0. 9.
       21    -1     0     0   103   101  0.0000000000e+00  0.0000000000e+00 -8.8329191911e+01  8.8329191911e+01  0.0000000000e+00 0. 9.
        6     2     1     2   103     0 -9.7671952455e+01  9.8436283834e+00  5.2461257343e+01  2.0472841629e+02  1.7182791857e+02  5.685014e-13 9.
       -6     2     1     2     0   102  9.7671952455e+01 -9.8436283834e+00  7.8048940200e+02  8.0488062687e+02  1.7038899484e+02  1.662130e-13 9.
       24     2     3     0     0     0 -3.4375358845e+01  2.7314064241e+01  8.9046353172e+01  1.2940787375e+02  8.3002538368e+01  3.951721e-14 9.
        5     1     3     0   103     0 -6.3296593609e+01 -1.7470435858e+01 -3.6585095829e+01  7.5320542539e+01  4.8000000000e+00 0. 9.
      -24     2     4     0     0     0  9.9721722746e+01  3.8700898793e+01  6.8381102131e+02  6.9657309264e+02  7.8577216667e+01  4.176865e-14 9.
       -5     1     4     0     0   102 -2.0497702913e+00 -4.8544527176e+01  9.6678380694e+01  1.0830753423e+02  4.8000000000e+00 0. 9.
       -3     1     5     0     0   104 -6.1157624575e+01  1.2821379411e+01  5.1045908955e+01  8.0688150522e+01  5.0000000000e-01 0. 9.
        4     1     5     0   104     0  2.6782265730e+01  1.4492684831e+01  3.8000444217e+01  4.8719723233e+01  1.5000000000e+00 0. 9.
        1     1     7     0   105     0  7.0232659801e+01 -1.4624181198e+01  3.6011117537e+02  3.6718750075e+02  3.3000000000e-01 0. 9.
       -2     1     7     0     0   105  2.9489062945e+01  5.3325079991e+01  3.2369984594e+02  3.2938559190e+02  3.3000000000e-01 0. 9.
#pdf   21   21  1.417354e-01  1.358911e-02  1.966446e+02  4.900057e-01  6.376844e+00
</event>
<event>
    12  9999  1.000000e+00  2.105707e+02  7.892382e-03  1.050784e-01
       21    -1     0     0   101   102  0.0000000000e+00  0.0000000000e+00  7.0038747374e+02  7.0038747374e+02  0.0000000000e+00 0. 9.
       21    -1     0     0   103   101  0.0000000000e+00  0.0000000000e+00 -9.4393236991e+01  9.4393236991e+01  0.0000000000e+00 0. 9.
        6     2     1     2   103     0 -3.6520573137e+01 -1.1811375769e+02  7.5113955879e+01  2.2372692854e+02  1.7066640024e+02  4.484494e-13 9.
       -6     2     1     2     0   102  3.6520573137e+01  1.1811375769e+02  5.3088028087e+02  5.7105378219e+02  1.7024669607e+02  9.226793e-14 9.
       24     2     3     0     0     0 -2.8233410907e+01 -1.5162833716e+02  5.8870167639e+01  1.8527169806e+02  8.4092968458e+01  4.088062e-14 9.
        5     1     3     0   103     0 -8.2871622298e+00  3.3514579471e+01  1.6243788240e+01  3.8455230481e+01  4.8000000000e+00 0. 9.
      -24     2     4     0     0     0  1.6527312158e+01  1.1957100721e+02  5.2915321099e+02  5.5036859833e+02  9.1280312883e+01  3.948993e-14 9.
       -5     1     4     0     0   102  1.9993260979e+01 -1.4572495290e+00  1.7270698809e+00  2.0685183856e+01  4.8000000000e+00 0. 9.
       -3     1     5     0     0   104 -3.2653627082e+01 -1.5189738410e+02  7.2068731092e+01  1.7126945629e+02  5.0000000000e-01 0. 9.
        4     1     5     0   104     0  4.4202161747e+00  2.6904694139e-01 -1.3198563454e+01  1.4002241768e+01  1.5000000000e+00 0. 9.
        3     1     7     0   105     0  2.0058868400e+00  1.2084220688e+01  2.5845297874e+02  2.5874358773e+02  5.0000000000e-01 0. 9.
       -4     1     7     0     0   105  1.4521425318e+01  1.0748678653e+02  2.7070023225e+02  2.9162501061e+02  1.5000000000e+00 0. 9.
#pdf   21   21  1.077519e-01  1.452204e-02  2.104009e+02  7.329515e-01  6.039575e+00
</event>
<event>
    12  9999  1.000000e+00  2.360092e+02  7.902696e-03  1.036532e-01
       21    -1     0     0   101   102  0.0000000000e+00  0.0000000000e+00  3.6019522429e+02  3.6019522429e+02  0.0000000000e+00 0. 9.
       21    -1     0     0   103   101  0.0000000000e+00  0.0000000000e+00 -1.6272080761e+02  1.6272080761e+02  0.0000000000e+00 0. 9.
        6     2     1     2   103     0 -1.6248624854e+02  1.5808712560e+01  1.5781944094e+02  2.8573281793e+02  1.7344904422e+02  1.387796e-13 9.
       -6     2     1     2     0   102  1.6248624854e+02 -1.5808712560e+01  3.9654975744e+01  2.3718321397e+02  1.6742659147e+02  1.445346e-13 9.
       24     2     3     0     0     0 -1.8825625585e+02 -1.6345868776e+00  1.4836333973e+02  2.5285699364e+02  8.0510178955e+01  8.755112e-14 9.
        5     1     3     0   103     0  2.5770007313e+01  1.7443299438e+01  9.4561012126e+00  3.2875824283e+01  4.8000000000e+00 0. 9.
      -24     2     4     0     0     0  4.3788478388e+01  1.7434310957e+01  6.2248961043e+01  1.1177273824e+02  7.9980158940e+01  1.454995e-13 9.
       -5     1     4     0     0   102  1.1869777015e+02 -3.3243023517e+01 -2.2593985299e+01  1.2541047573e+02  4.8000000000e+00 0. 9.
       -1     1     5     0     0   104 -1.1052785905e+02  3.7693152898e+01  9.6372006220e+01  1.5140955678e+02  3.3000000000e-01 0. 9.
        2     1     5     0   104     0 -7.7728396809e+01 -3.9327739776e+01  5.1991333510e+01  1.0144743687e+02  3.3000000000e-01 0. 9.
        3     1     7     0   105     0  5.3133030477e+01 -1.4572505119e+01  2.1608432042e+01  5.9183200053e+01  5.0000000000e-01 0. 9.
       -4     1     7     0     0   105 -9.3445520889e+00  3.2006816075e+01  4.0640529001e+01  5.2589538185e+01  1.5000000000e+00 0. 9.
#pdf   21   21  5.541465e-02  2.503397e-02  2.338447e+02  1.678354e+00  3.759615e+00
</event>
<event>
    12  9999  1.000000e+00  2.120393e+02  7.893009e-03  1.049904e-01
       21    -1     0     0   101   102  0.0000000000e+00  0.0000000000e+00  6.6867271525e+02  6.6867271525e+02  0.0000000000e+00 0. 9.
       21    -1     0     0   103   101  0.0000000000e+00  0.0000000000e+00 -8.7867277039e+01  8.7867277039e+01  0.0000000000e+00 0. 9.
        6     2     1     2   103     0  2.6230487526e+01  1.2345438174e+02  1.0704835772e+02  2.3746860846e+02  1.7030257271e+02  1.987355e-13 9.
       -6     2     1     2     0   102 -2.6230487526e+01 -1.2345438174e+02  4.7375708050e+02  5.1907138383e+02  1.7047084015e+02  3.668449e-14 9.
       24     2     3     0     0     0  6.8358435689e+01  3.3477957586e+01  7.6879378538e+01  1.3352762413e+02  7.8265817494e+01  8.576089e-14 9.
        5     1     3     0   103     0 -4.2127948163e+01  8.9976424150e+01  3.0168979177e+01  1.0394098433e+02  4.8000000000e+00 0. 9.
      -24     2     4     0     0     0 -7.7690127457e+01 -1.0559159248e+02  3.6441999356e+02  3.9682240689e+02  8.6491332504e+01  1.203354e-13 9.
       -5     1     4     0     0   102  5.1459639931e+01 -1.7862789255e+01  1.0933708694e+02  1.2224897693e+02  4.8000000000e+00 0. 9.
       -1     1     5     0     0   104  3.0346959672e+01  5.6883220305e+01  4.7622567796e+01  8.0153955467e+01  3.3000000000e-01 0. 9.
        2     1     5     0   104     0  3.8011476017e+01 -2.3405262719e+01  2.9256810743e+01  5.3373668665e+01  3.3000000000e-01 0. 9.
        3     1     7     0   105     0  5.1298931385e+00 -2.9660217935e+01  2.4511964681e+01  3.8821781825e+01  5.0000000000e-01 0. 9.
       -4     1     7     0     0   105 -8.2820020595e+01 -7.5931374546e+01  3.3990802888e+02  3.5800062507e+02  1.5000000000e+00 0. 9.
#pdf   21   21  1.028727e-01  1.351804e-02  2.119717e+02  7.815492e-01  6.402459e+00
</event>
<event>
    12  9999  1.000000e+00  1.869921e+02  7.881670e-03  1.066053e-01
       21    -1     0     0   101   102  0.0000000000e+00  0.0000000000e+00  1.5554200700e+02  1.5554200700e+02  0.0000000000e+00 0. 9.
       21    -1     0     0   103   101  0.0000000000e+00  0.0000000000e+00 -2.7622175276e+02  2.7622175276e+02  0.0000000000e+00 0. 9.
        6     2     1     2   103     0 -7.6805222295e+01 -8.7513475475e+00  3.3005980746e+01  1.8911213287e+02  1.6940594966e+02  5.801696e-13 9.
       -6     2     1     2     0   102  7.6805222295e+01  8.7513475475e+00 -1.5368572650e+02  2.4265162689e+02  1.7112825964e+02  6.264908e-14 9.
       24     2     3     0     0     0  1.5159184468e+01  2.4869694121e+01  5.7188587865e+00  8.7350383776e+01  8.2152794478e+01  1.368228e-13 9.
        5     1     3     0   103     0 -9.1964406763e+01 -3.3621041669e+01  2.7287121960e+01  1.0176174910e+02  4.8000000000e+00 0. 9.
      -24     2     4     0     0     0  1.0562987197e+02  3.6742875282e+01 -1.4698861947e+02  2.0163605306e+02  8.0893355143e+01  7.049947e-14 9.
       -5     1     4     0     0   102 -2.8824649672e+01 -2.7991527734e+01 -6.6971070328e+00  4.1015573825e+01  4.8000000000e+00 0. 9.
       -3     1     5     0     0   104  2.2272524997e+00 -1.2242023295e+01  3.5756363469e+01  3.7862848764e+01  5.0000000000e-01 0. 9.
        4     1     5     0   104     0  1.2931931969e+01  3.7111717416e+01 -3.0037504682e+01  4.9487535012e+01  1.5000000000e+00 0. 9.
       13     1     7     0     0     0  5.1766330952e+01  4.2537034146e+01 -1.2755535738e+02  1.4408168743e+02  1.0566000000e-01  6.391536e+05 9.
      -14     1     7     0     0     0  5.3863541015e+01 -5.7941588647e+00 -1.9433262092e+01  5.7554365631e+01  0.0000000000e+00 0. 9.
#pdf   21   21  2.392954e-02  4.249565e-02  1.862096e+02  3.943130e+00  2.268101e+00
</event>
<event>
    12  9999  1.000000e+00  2.219420e+02  7.897135e-03  1.044163e-01
       21    -1     0     0   101   102  0.0000000000e+00  0.0000000000e+00  1.1425397239e+03  1.1425397239e+03  0.0000000000e+00 0. 9.
       21    -1     0     0   102   103  0.0000000000e+00  0.0000000000e+00 -4.4121601775e+01  4.4121601775e+01  0.0000000000e+00 0. 9.
        6     2     1     2   101     0  1.3943671695e+02 -1.8491711452e+01  6.4247002313e+02  6.8021982152e+02  1.7362814731e+02  4.640930e-14 9.
       -6     2     1     2     0   103 -1.3943671695e+02  1.8491711452e+01  4.5594809904e+02  5.0644150420e+02  1.6973445947e+02  1.043333e-14 9.
       24     2     3     0     0     0  3.5660015036e+01 -6.2715319041e+01  2.6925607219e+02  2.9030056769e+02  8.1060096692e+01  9.813042e-14 9.
        5     1     3     0   101     0  1.0377670192e+02  4.4223607588e+01  3.7321395094e+02  3.8991925383e+02  4.8000000000e+00 0. 9.
      -24     2     4     0     0     0 -1.3484956276e+02  5.5570882722e+01  2.8054692791e+02  3.2704106452e+02  8.3526950957e+01  3.663865e-13 9.
       -5     1     4     0     0   103 -4.5871541906e+00 -3.7079171269e+01  1.7540117113e+02  1.7940043968e+02  4.8000000000e+00 0. 9.
       -1     1     5     0     0   104  3.9405155997e+01 -2.8829182932e+01  2.4135773789e+02  2.4624693835e+02  3.3000000000e-01 0. 9.
        2     1     5     0   104     0 -3.7451409607e+00 -3.3886136109e+01  2.7898334296e+01  4.4053629336e+01  3.3000000000e-01 0. 9.
       13     1     7     0     0     0 -5.6862439357e+00  2.6667627476e+01  9.6930623279e+01  1.0069286280e+02  1.0566000000e-01  1.216477e+04 9.
      -14     1     7     0     0     0 -1.2916331883e+02  2.8903255245e+01  1.8361630463e+02  2.2634820172e+02  0.0000000000e+00 0. 9.
#pdf   21   21  1.757753e-01  6.787939e-03  2.204412e+02  3.347155e-01  1.086418e+01
</event>
<event>
    12  9999  1.000000e+00  2.437425e+02  7.905617e-03  1.032574e-01
       21    -1     0     0   101   102  0.0000000000e+00  0.0000000000e+00  1.2380639092e+03  1.2380639092e+03  0.0000000000e+00 0. 9.
       21    -1     0     0   103   101  0.0000000000e+00  0.0000000000e+00 -5.0877005697e+01  5.0877005697e+01  0.0000000000e+00 0. 9.
        6     2     1     2   103     0 -3.8221511288e+01 -1.6989031931e+02  4.4004832249e+02  5.0305775092e+02  1.7059006453e+02  8.650262e-14 9.
       -6     2     1     2     0   102  3.8221511288e+01  1.6989031931e+02  7.4713858101e+02  7.8588316397e+02  1.7050713668e+02  1.124080e-14 9.
       24     2     3     0     0     0 -5.2378197030e+01 -1.8735490499e+02  4.2856043006e+02  4.7735881754e+02  7.9762538368e+01  3.194952e-13 9.
        5     1     3     0   103     0  1.4156685742e+01  1.7464585683e+01  1.1487892432e+01  2.5698933379e+01  4.8000000000e+00 0. 9.
      -24     2     4     0     0     0  2.9856107031e+01  1.9607956518e+02  6.8036644285e+02  7.1351317695e+02  8.2849104483e+01  7.079587e-14 9.
       -5     1     4     0     0   102  8.3654042577e+00 -2.6189245867e+01  6.6772138161e+01  7.2369987025e+01  4.8000000000e+00 0. 9.
       -1     1     5     0     0   104 -3.1536728237e+01 -1.7351310804e+02  4.0963983036e+02  4.4598908441e+02  3.3000000000e-01 0. 9.
        2     1     5     0   104     0 -2.0841468794e+01 -1.3841796948e+01  1.8920599694e+01  3.1369733136e+01  3.3000000000e-01 0. 9.
       13     1     7     0     0     0 -1.2959391055e+01  6.1222597514e+00  1.0762908048e+02  1.0857927062e+02  1.0566000000e-01  1.062789e+06 9.
      -14     1     7     0     0     0  4.2815498085e+01  1.8995730542e+02  5.7273736238e+02  6.0493390633e+02  0.0000000000e+00 0. 9.
#pdf   21   21  1.904714e-01  7.827232e-03  2.437135e+02  2.835543e-01  9.798468e+00
</event>
<event>
    12  9999  1.000000e+00  2.193303e+02  7.896065e-03  1.045646e-01
       21    -1     0     0   101   102  0.0000000000e+00  0.0000000000e+00  1.9648748363e+02  1.9648748363e+02  0.0000000000e+00 0. 9.
       21    -1     0     0   102   103  0.0000000000e+00  0.0000000000e+00 -9.0543786842e+02  9.0543786842e+02  0.0000000000e+00 0. 9.
        6     2     1     2   101     0 -8.4440870839e+01  1.0859090773e+02  1.1624595049e+02  2.4801534037e+02  1.7051757136e+02  2.473924e-13 9.
       -6     2     1     2     0   103  8.4440870839e+01 -1.0859090773e+02 -8.2519633528e+02  8.5391001168e+02  1.7114634199e+02  4.717755e-13 9.
       24     2     3     0     0     0 -9.2203803838e+01  7.4989764377e+01  1.9061931297e+01  1.4478223739e+02  8.0458267661e+01  1.510932e-13 9.
        5     1     3     0   101     0  7.7629329984e+00  3.3601143358e+01  9.7184019196e+01  1.0323310298e+02  4.8000000000e+00 0. 9.
      -24     2     4     0     0     0 -1.7210777215e+01 -6.2791973419e+01 -3.0989801037e+02  3.2666623164e+02  8.0218497143e+01  4.564451e-14 9.
       -5     1     4     0     0   103  1.0165164805e+02 -4.5798934316e+01 -5.1529832491e+02  5.2724378004e+02  4.8000000000e+00 0. 9.
       -1     1     5     0     0   104 -9.3393514438e+01  3.3996242256e+01  2.7039080333e+01  1.0300152325e+02  3.3000000000e-01 0. 9.
        2     1     5     0   104     0  1.1897106003e+00  4.0993522121e+01 -7.9771490358e+00  4.1780714138e+01  3.3000000000e-01 0. 9.
        1     1     7     0   105     0  5.5619895991e+00 -2.8966204720e+01 -2.6245089740e+02  2.6410331159e+02  3.3000000000e-01 0. 9.
       -2     1     7     0     0   105 -2.2772766814e+01 -3.3825768699e+01 -4.7447112965e+01  6.2562920050e+01  3.3000000000e-01 0. 9.
#pdf   21   21  3.022884e-02  1.392981e-01  2.190856e+02  3.158076e+00  4.964820e-01
</event>
<event>
    12  9999  1.000000e+00  1.749224e+02  7.875665e-03  1.074830e-01
       21    -1     0     0   101   102  0.0000000000e+00  0.0000000000e+00  3.0435421133e+02  3.0435421133e+02  0.0000000000e+00 0. 9.
       21    -1     0     0   103   101  0.0000000000e+00  0.0000000000e+00 -3.5167531139e+02  3.5167531139e+02  0.0000000000e+00 0. 9.
        6     2     1     2   103     0 -3.3360344470e+01 -1.4902447167e+01 -3.0087176403e+02  3.4827639303e+02  1.7157398415e+02  7.972915e-14 9.
       -6     2     1     2     0   102  3.3360344470e+01  1.4902447167e+01  2.5355066397e+02  3.0775312969e+02  1.7055513513e+02  1.252425e-13 9.
       24     2     3     0     0     0 -5.3378132400e+01 -6.3636618388e+01 -1.5810926082e+02  1.9602691487e+02  8.0803272069e+01  7.195946e-14 9.
        5     1     3     0   103     0  2.0017787930e+01  4.8734171221e+01 -1.4276250321e+02  1.5224947816e+02  4.8000000000e+00 0. 9.
      -24     2     4     0     0     0  7.2269277120e+01  4.1264023909e+01  1.2422362207e+02  1.7006739501e+02  8.1029886340e+01  1.066979e-13 9.
       -5     1     4     0     0   102 -3.8908932651e+01 -2.6361576742e+01  1.2932704190e+02  1.3768573469e+02  4.8000000000e+00 0. 9.
      -11     1     5     0     0     0 -4.6191157476e+01 -3.1256255722e+01 -1.5251156683e+02  1.6238951496e+02  5.1100000000e-04 0. 9.
       12     1     5     0     0     0 -7.1869749244e+00 -3.2380362666e+01 -5.5976939949e+00  3.3637399915e+01  0.0000000000e+00 0. 9.
        1     1     7     0   104     0  1.5483302010e+01  5.2799480608e+01  8.0352474133e+01  9.7386584256e+01  3.3000000000e-01 0. 9.
       -2     1     7     0     0   104  5.6785975110e+01 -1.1535456699e+01  4.3871147937e+01  7.2680810753e+01  3.3000000000e-01 0. 9.
#pdf   21   21  4.682372e-02  5.410389e-02  1.744249e+02  2.056162e+00  1.758515e+00
</event>
<event>
    12  9999  1.000000e+00  2.932971e+02  7.922424e-03  1.010433e-01
        2    -1     0     0   101     0  0.0000000000e+00  0.0000000000e+00  4.1568862401e+02  4.1568862401e+02  0.0000000000e+00 0. 9.
       -2    -1     0     0     0   102  0.0000000000e+00  0.0000000000e+00 -2.0988866345e+02  2.0988866345e+02  0.0000000000e+00 0. 9.
        6     2     1     2   101     0  2.3735489647e+02  1.4264406399e+01  1.3998526715e+02  3.2504477747e+02  1.7180632169e+02  2.863364e-14 9.
       -6     2     1     2     0   102 -2.3735489647e+02 -1.4264406399e+01  6.5814693411e+01  3.0053250999e+02  1.7160243450e+02  1.763197e-14 9.
       24     2     3     0     0     0  2.2034983568e+02  5.8178862054e+01  9.5493931668e+01  2.6008193855e+02  8.1146125603e+01  2.866952e-14 9.
        5     1     3     0   101     0  1.7005060793e+01 -4.3914455655e+01  4.4491335482e+01  6.4962838924e+01  4.8000000000e+00 0. 9.
      -24     2     4     0     0     0 -8.4845259792e+01  4.9311980570e+01  4.1618592065e+01  1.3347073226e+02  8.0323966704e+01  4.144617e-15 9.
       -5     1     4     0     0   102 -1.5250963668e+02 -6.3576386968e+01  2.4196101346e+01  1.6706177774e+02  4.8000000000e+00 0. 9.
      -15     1     5     0     0     0  4.0879245661e+01 -2.1976546346e+00 -1.1539476439e+01  4.2570635624e+01  1.7768200000e+00  2.301734e-02 9.
       16     1     5     0     0     0  1.7947059002e+02  6.0376516689e+01  1.0703340811e+02  2.1751130292e+02  0.0000000000e+00 0. 9.
        3     1     7     0   103     0 -4.8653324418e+01 -1.6554423531e+01  1.2790298342e+01  5.2962596679e+01  5.0000000000e-01 0. 9.
       -4     1     7     0     0   103 -3.6191935374e+01  6.5866404101e+01  2.8828293724e+01  8.0508135578e+01  1.5000000000e+00 0. 9.
#pdf    2   -2  6.395210e-02  3.229056e-02  2.932375e+02  6.082712e-01  2.327601e-01
</event>
<event>
    12  9999  1.000000e+00  1.890117e+02  7.882638e-03  1.064653e-01
       21    -1     0     0   101   102  0.0000000000e+00  0.0000000000e+00  1.3774726211e+03  1.3774726211e+03  0.0000000000e+00 0. 9.
       21    -1     0     0   102   103  0.0000000000e+00  0.0000000000e+00 -4.0515706360e+01  4.0515706360e+01  0.0000000000e+00 0. 9.
        6     2     1     2   101     0  7.9964625422e+01 -1.8160350198e+01  1.0941798193e+03  1.1104139578e+03  1.7048619002e+02  5.732857e-13 9.
       -6     2     1     2     0   103 -7.9964625422e+01  1.8160350198e+01  2.4277709539e+02  3.0757436965e+02  1.7010918606e+02  3.184060e-15 9.
       24     2     3     0     0     0  2.3979213625e+01  2.9060283360e+01  8.7024936377e+02  8.7476157929e+02  8.0339048391e+01  2.091988e-14 9.
        5     1     3     0   101     0  5.5985411797e+01 -4.7220633557e+01  2.2393045554e+02  2.3565237849e+02  4.8000000000e+00 0. 9.
      -24     2     4     0     0     0 -1.0307002759e+01  6.5592970442e+01  1.5234173306e+02  1.8386651776e+02  7.8677955269e+01  5.188864e-14 9.
       -5     1     4     0     0   103 -6.9657622663e+01 -4.7432620244e+01  9.0435362328e+01  1.2370785188e+02  4.8000000000e+00 0. 9.
      -13     1     5     0     0     0  2.3851770258e+01  3.9842419152e+01  2.4173472953e+02  2.4615445544e+02  1.0566000000e-01  6.043857e+05 9.
       14     1     5     0     0     0  1.2744336760e-01 -1.0782135793e+01  6.2851463425e+02  6.2860712385e+02  0.0000000000e+00 0. 9.
       15     1     7     0     0     0  3.2780218270e+01  1.5127612391e+01  6.2103013955e+01  7.1856306599e+01  1.7768200000e+00  7.954151e-02 9.
      -16     1     7     0     0     0 -4.3087221029e+01  5.0465358051e+01  9.0238719105e+01  1.1201021116e+02  0.0000000000e+00 0. 9.
#pdf   21   21  2.119189e-01  6.233186e-03  1.888419e+02  2.400859e-01  1.150618e+01
</event>
<event>
    12  9999  1.000000e+00  2.349658e+02  7.902295e-03  1.037079e-01
        1    -1     0     0   101     0  0.0000000000e+00  0.0000000000e+00  2.0415489756e+02  2.0415489756e+02  0.0000000000e+00 0. 9.
       -1    -1     0     0     0   102  0.0000000000e+00  0.0000000000e+00 -2.9153304302e+02  2.9153304302e+02  0.0000000000e+00 0. 9.
        6     2     1     2   101     0  1.4986212014e+01  1.6107055996e+02  2.3070942947e+01  2.3566645845e+02  1.6981784180e+02  3.118769e-14 9.
       -6     2     1     2     0   102 -1.4986212014e+01 -1.6107055996e+02 -1.1044908841e+02  2.6002148213e+02  1.7100835711e+02  8.951325e-15 9.
       24     2     3     0     0     0  4.4978148022e+01  1.7311546920e+02 -1.5769801499e+00  1.9473778663e+02  7.6995579094e+01  8.693800e-14 9.
        5     1     3     0   101     0 -2.9991936007e+01 -1.2044909237e+01  2.4647923097e+01  4.0928671821e+01  4.8000000000e+00 0. 9.
      -24     2     4     0     0     0  2.0343094577e+01 -1.7733276253e+02 -9.5674979258e+01  2.1814149362e+02  8.1063305012e+01  3.288472e-14 9.
       -5     1     4     0     0   102 -3.5329306592e+01  1.6262202566e+01 -1.4774109153e+01  4.1879988513e+01  4.8000000000e+00 0. 9.
       -1     1     5     0     0   103  4.8918632372e+01  1.6974930062e+02  1.5070235569e+01  1.7729940371e+02  3.3000000000e-01 0. 9.
        2     1     5     0   103     0 -3.9404843501e+00  3.3661685760e+00 -1.6647215718e+01  1.7438382923e+01  3.3000000000e-01 0. 9.
        3     1     7     0   104     0  8.4842376905e+00 -2.7271850236e+01 -5.5367895175e+01  6.2302407021e+01  5.0000000000e-01 0. 9.
       -4     1     7     0     0   104  1.1858856887e+01 -1.5006091229e+02 -4.0307084083e+01  1.5583908660e+02  1.5000000000e+00 0. 9.
#pdf    1   -1  3.140845e-02  4.485124e-02  2.345345e+02  4.878646e-01  2.074973e-01
</event>
<event>
    12  9999  1.000000e+00  1.670791e+02  7.871541e-03  1.081294e-01
       21    -1     0     0   101   102  0.0000000000e+00  0.0000000000e+00  1.6165754826e+02  1.6165754826e+02  0.0000000000e+00 0. 9.
       21    -1     0     0   103   101  0.0000000000e+00  0.0000000000e+00 -1.1263652564e+03  1.1263652564e+03  0.0000000000e+00 0. 9.
        6     2     1     2   103     0 -2.7123966911e+01 -2.8337032226e+01 -1.0733930417e+03  1.0858039146e+03  1.5893024239e+02  9.165397e-14 9.
       -6     2     1     2     0   102  2.7123966911e+01  2.8337032226e+01  1.0868533353e+02  2.0221889012e+02  1.6595565920e+02  3.860191e-13 9.
       24     2     3     0     0     0 -2.7902440941e+01 -6.7090958272e+01 -5.4345020198e+02  5.5442370589e+02  8.2266522521e+01  4.801026e-14 9.
        5     1     3     0   103     0  7.7847403005e-01  3.8753926046e+01 -5.2994283973e+02  5.3138020869e+02  4.8000000000e+00 0. 9.
      -24     2     4     0     0     0  2.4265912108e+01  1.1812827728e+01  2.0011106598e+01  1.1184535232e+02  1.0667971250e+02  1.124644e-14 9.
       -5     1     4     0     0   102  2.8580548028e+00  1.6524204498e+01  8.8674226936e+01  9.0373537799e+01  4.8000000000e+00 0. 9.
       -3     1     5     0     0   104 -5.5943359981e+01 -3.3782886953e+01 -2.9168011350e+02  2.9891216367e+02  5.0000000000e-01 0. 9.
        4     1     5     0   104     0  2.8040919040e+01 -3.3308071319e+01 -2.5177008848e+02  2.5551154222e+02  1.5000000000e+00 0. 9.
       11     1     7     0     0     0  5.4280957875e+01  3.7091551904e+01  2.8566827212e+01  7.1681721713e+01  5.1100000000e-04 0. 9.
      -12     1     7     0     0     0 -3.0015045766e+01 -2.5278724176e+01 -8.5557206143e+00  4.0163630607e+01  0.0000000000e+00 0. 9.
#pdf   21   21  2.487039e-02  1.732870e-01  1.636995e+02  3.819761e+00  3.595873e-01
</event>
<event>
    12  9999  1.000000e+00  1.826951e+02  7.879577e-03  1.069094e-01
       21    -1     0     0   101   102  0.0000000000e+00  0.0000000000e+00  1.2093695371e+02  1.2093695371e+02  0.0000000000e+00 0. 9.
       21    -1     0     0   102   103  0.0000000000e+00  0.0000000000e+00 -3.2760511668e+02  3.2760511668e+02  0.0000000000e+00 0. 9.
        6     2     1     2   101     0  5.3055996603e+01 -3.3720996869e+01 -1.4075030373e+01  1.8273033222e+02  1.7099772930e+02  2.949045e-13 9.
       -6     2     1     2     0   103 -5.3055996603e+01  3.3720996869e+01 -1.9259313260e+02  2.6581173817e+02  1.7208056549e+02  4.496838e-14 9.
       24     2     3     0     0     0  1.4778010891e+01 -7.7681012717e-01  5.4272686262e+01  9.7612919194e+01  7.9773206528e+01  2.555863e-13 9.
        5     1     3     0   101     0  3.8277985712e+01 -3.2944186742e+01 -6.8347716635e+01  8.5117413021e+01  4.8000000000e+00 0. 9.
      -24     2     4     0     0     0  1.5242805402e+01  4.7849191202e+01 -1.1056136677e+02  1.5803148564e+02  1.0113479330e+02  3.149492e-13 9.
       -5     1     4     0     0   103 -6.8298802005e+01 -1.4128194332e+01 -8.2031765823e+01  1.0778025253e+02  4.8000000000e+00 0. 9.
       -3     1     5     0     0   104  4.6830202198e-01  3.6208091480e+01  8.8193499596e+00  3.7272994635e+01  5.0000000000e-01 0. 9.
        4     1     5     0   104     0  1.4309708869e+01 -3.6984901607e+01  4.5453336302e+01  6.0339924559e+01  1.5000000000e+00 0. 9.
       15     1     7     0     0     0 -4.1427208902e+01  4.7947126566e+00 -4.1580241778e+01  5.8917539854e+01  1.7768200000e+00  2.211931e-02 9.
      -16     1     7     0     0     0  5.6670014304e+01  4.3054478545e+01 -6.8981124995e+01  9.9113945787e+01  0.0000000000e+00 0. 9.
#pdf   21   21  1.860569e-02  5.040079e-02  1.821875e+02  4.916922e+00  1.895322e+00
</event>
<event>
    12  9999  1.000000e+00  1.766984e+02  7.876573e-03  1.073492e-01
       21    -1     0     0   101   102  0.0000000000e+00  0.0000000000e+00  5.5581326911e+01  5.5581326911e+01  0.0000000000e+00 0. 9.
       21    -1     0     0   102   103  0.0000000000e+00  0.0000000000e+00 -6.0561318442e+02  6.0561318442e+02  0.0000000000e+00 0. 9.
        6     2     1     2   101     0  3.2861264990e+01 -1.6614255839e+01 -1.8481278523e+02  2.5510156360e+02  1.7194518293e+02  2.310311e-14 9.
       -6     2     1     2     0   103 -3.2861264990e+01  1.6614255839e+01 -3.6521907227e+02  4.0609294773e+02  1.7369690615e+02  4.078624e-13 9.
       24     2     3     0     0     0  6.7672255245e+01  2.0238165487e+01 -5.8794766015e+01  1.1918435657e+02  7.5887870358e+01  3.131150e-14 9.
        5     1     3     0   101     0 -3.4810990255e+01 -3.6852421326e+01 -1.2601801922e+02  1.3591720703e+02  4.8000000000e+00 0. 9.
      -24     2     4     0     0     0  4.4391668238e+01  1.4208695890e+01 -2.6681845629e+02  2.8087504311e+02  7.4338374855e+01  6.505616e-14 9.
       -5     1     4     0     0   103 -7.7252933229e+01  2.4055599491e+00 -9.8400615978e+01  1.2521790461e+02  4.8000000000e+00 0. 9.
       -3     1     5     0     0   104 -1.5513030241e+00  1.0284289787e+01  1.4509674119e+01  1.7859277716e+01  5.0000000000e-01 0. 9.
        4     1     5     0   104     0  6.9223558269e+01  9.9538756998e+00 -7.3304440134e+01  1.0132507885e+02  1.5000000000e+00 0. 9.
       11     1     7     0     0     0  2.2653042159e+01  5.3847646585e+00 -1.4418467898e+01  2.7387008348e+01  5.1100000000e-04 0. 9.
      -12     1     7     0     0     0  2.1738626079e+01  8.8239312317e+00 -2.5239998840e+02  2.5348803476e+02  0.0000000000e+00 0. 9.
#pdf   21   21  8.550973e-03  9.317126e-02  1.758438e+02  9.118625e+00  9.113033e-01
</event>
<event>
    12  9999  1.000000e+00  1.764614e+02  7.876453e-03  1.073670e-01
       21    -1     0     0   101   102  0.0000000000e+00  0.0000000000e+00  1.1468262085e+03  1.1468262085e+03  0.0000000000e+00 0. 9.
       21    -1     0     0   102   103  0.0000000000e+00  0.0000000000e+00 -2.7186137724e+01  2.7186137724e+01  0.0000000000e+00 0. 9.
        6     2     1     2   101     0  1.2208223438e+01  3.6207977214e+01  5.7770003555e+02  6.0379963864e+02  1.7139607408e+02  2.378504e-13 9.
       -6     2     1     2     0   103 -1.2208223438e+01 -3.6207977214e+01  5.4194003518e+02  5.7021270755e+02  1.7315736131e+02  2.102524e-13 9.
       24     2     3     0     0     0 -4.9610903975e+01  4.2008150202e+01  4.5436824839e+02  4.6563663258e+02  7.8364800590e+01  5.078028e-14 9.
        5     1     3     0   101     0  6.1819127412e+01 -5.8001729881e+00  1.2333178716e+02  1.3816300606e+02  4.8000000000e+00 0. 9.
      -24     2     4     0     0     0  5.3696499460e+01 -2.0123576066e+01  4.1159205705e+02  4.2318966220e+02  7.9957466153e+01  2.876263e-13 9.
       -5     1     4     0     0   103 -6.5904722898e+01 -1.6084401148e+01  1.3034797813e+02  1.4702304535e+02  4.8000000000e+00 0. 9.
       -1     1     5     0     0   104  9.0103949689e+00  3.9799449081e+01  2.3718596497e+02  2.4067088366e+02  3.3000000000e-01 0. 9.
        2     1     5     0   104     0 -5.8621298944e+01  2.2087011209e+00  2.1718228342e+02  2.2496574891e+02  3.3000000000e-01 0. 9.
        3     1     7     0   105     0 -8.9908026587e+00 -1.3535994113e+01  2.3708348691e+02  2.3764024793e+02  5.0000000000e-01 0. 9.
       -4     1     7     0     0   105  6.2687302119e+01 -6.5875819535e+00  1.7450857014e+02  1.8554941427e+02  1.5000000000e+00 0. 9.
#pdf   21   21  1.764348e-01  4.182483e-03  1.756037e+02  3.445756e-01  1.513848e+01
</event>
<event>
    12  9999  1.000000e+00  2.121067e+02  7.893038e-03  1.049864e-01
        1    -1     0     0   101     0  0.0000000000e+00  0.0000000000e+00  4.9982089607e+02  4.9982089607e+02  0.0000000000e+00 0. 9.
       -1    -1     0     0     0   102  0.0000000000e+00  0.0000000000e+00 -9.4798327530e+01  9.4798327530e+01  0.0000000000e+00 0. 9.
        6     2     1     2   101     0 -1.1972130998e+02  3.7938822027e+01  2.6952319216e+02  3.4311103662e+02  1.7120130273e+02  1.125842e-14 9.
       -6     2     1     2     0   102  1.1972130998e+02 -3.7938822027e+01  1.3549937639e+02  2.5150818699e+02  1.7065679254e+02  1.694157e-13 9.
       24     2     3     0     0     0 -1.4293443460e+02 -2.9712944682e+00  1.9580077770e+02  2.5552952498e+02  8.0736066331e+01  2.015455e-14 9.
        5     1     3     0   101     0  2.3213124618e+01  4.0910116495e+01  7.3722414460e+01  8.7581511634e+01  4.8000000000e+00 0. 9.
      -24     2     4     0     0     0  5.3673257843e+00 -7.0840094163e+00  9.9277158181e+01  1.2755681646e+02  7.9597712999e+01  2.575041e-13 9.
       -5     1     4     0     0   102  1.1435398420e+02 -3.0854812610e+01  3.6222218206e+01  1.2395137052e+02  4.8000000000e+00 0. 9.
      -15     1     5     0     0     0 -1.1678544525e+01 -2.8021347590e+01  4.0696068170e+01  5.0802670962e+01  1.7768200000e+00  9.041336e-02 9.
       16     1     5     0     0     0 -1.3125589007e+02  2.5050053122e+01  1.5510470953e+02  2.0472685402e+02  0.0000000000e+00 0. 9.
       15     1     7     0     0     0  1.7523526009e+01  2.4975347566e+00  1.0822561186e+02  1.0967794581e+02  1.7768200000e+00  2.351896e-01 9.
      -16     1     7     0     0     0 -1.2156200225e+01 -9.5815441729e+00 -8.9484536843e+00  1.7878870658e+01  0.0000000000e+00 0. 9.
#pdf    1   -1  7.689552e-02  1.458436e-02  2.118874e+02  3.830604e-01  4.430135e-01
</event>
<event>
    12  9999  1.000000e+00  2.149015e+02  7.894221e-03  1.048211e-01
       -2    -1     0     0     0   101  0.0000000000e+00  0.0000000000e+00  4.2981001813e+02  4.2981001813e+02  0.0000000000e+00 0. 9.
        2    -1     0     0   102     0  0.0000000000e+00  0.0000000000e+00 -1.6665377251e+02  1.6665377251e+02  0.0000000000e+00 0. 9.
       -6     2     1     2     0   101 -2.7103920660e+01  1.3263441506e+02 -4.6963478506e+01  2.1799094997e+02  1.6428017343e+02  1.763124e-14 9.
        6     2     1     2   102     0  2.7103920660e+01 -1.3263441506e+02  3.1011972413e+02  3.7847284066e+02  1.6953152289e+02  3.818631e-13 9.
      -24     2     3     0     0     0 -5.0294226739e+01  2.6958106089e+01  1.1078737650e+01  9.5120239751e+01  7.5291917596e+01  1.520983e-13 9.
       -5     1     3     0     0   101  2.3190306080e+01  1.0567630897e+02 -5.8042216156e+01  1.2287071022e+02  4.8000000000e+00 0. 9.
       24     2     4     0     0     0  1.9220180133e+00 -1.0073930304e+02  2.7619593756e+02  3.2531938653e+02  1.3927098044e+02  3.685399e-14 9.
        5     1     4     0   102     0  2.5181902646e+01 -3.1895112020e+01  3.3923786567e+01  5.3153454137e+01  4.8000000000e+00 0. 9.
        3     1     5     0   103     0  1.9774619497e+01  1.0845916460e+01  2.5130091927e+00  2.2698781802e+01  5.0000000000e-01 0. 9.
       -4     1     5     0     0   103 -7.0068846236e+01  1.6112189630e+01  8.5657284570e+00  7.2421457949e+01  1.5000000000e+00 0. 9.
       -3     1     7     0     0   104  2.3512936202e+01 -1.3090801633e+02  2.3362256881e+02  2.6882991196e+02  5.0000000000e-01 0. 9.
        4     1     7     0   104     0 -2.1590918189e+01  3.0168713287e+01  4.2573368752e+01  5.6489474564e+01  1.5000000000e+00 0. 9.
#pdf   -2    2  6.612462e-02  2.563904e-02  2.128720e+02  1.160020e-01  6.597298e-01
</event>
<event>
    12  9999  1.000000e+00  1.809969e+02  7.878736e-03  1.070321e-01
       -1    -1     0     0     0   101  0.0000000000e+00  0.0000000000e+00  1.2054491012e+01  1.2054491012e+01  0.0000000000e+00 0. 9.
        1    -1     0     0   102     0  0.0000000000e+00  0.0000000000e+00 -2.9393218497e+03  2.9393218497e+03  0.0000000000e+00 0. 9.
       -6     2     1     2     0   101 -3.2138845507e+01 -6.5277985670e+01 -1.0251360295e+03  1.0401977166e+03  1.6066514823e+02  2.022919e-13 9.
        6     2     1     2   102     0  3.2138845507e+01  6.5277985670e+01 -1.9021313292e+03  1.9111786241e+03  1.7089768562e+02  1.642622e-13 9.
      -24     2     3     0     0     0 -5.7107479667e+01 -3.4581641621e+01 -9.4361877241e+02  9.4945741997e+02  8.1214841785e+01  3.025756e-13 9.
       -5     1     3     0     0   101  2.4968634160e+01 -3.0696344049e+01 -8.1517257077e+01  9.0740296622e+01  4.8000000000e+00 0. 9.
       24     2     4     0     0     0  6.7090480892e+01  8.8665423025e+01 -1.2093029450e+03  1.2170584623e+03  8.0343002695e+01  3.181044e-14 9.
        5     1     4     0   102     0 -3.4951635385e+01 -2.3387437354e+01 -6.9282838419e+02  6.9412016177e+02  4.8000000000e+00 0. 9.
       11     1     5     0     0     0  1.6676387440e+01  7.3520613904e+00 -1.0655087421e+02  1.0809830480e+02  5.1100000000e-04 0. 9.
      -12     1     5     0     0     0 -7.3783867106e+01 -4.1933703012e+01 -8.3706789820e+02  8.4135911518e+02  0.0000000000e+00 0. 9.
       -3     1     7     0     0   103  1.7129572422e+01  5.2262612124e+01 -2.6051019571e+02  2.6625291537e+02  5.0000000000e-01 0. 9.
        4     1     7     0   103     0  4.9960908470e+01  3.6402810900e+01 -9.4879274931e+02  9.5080554698e+02  1.5000000000e+00 0. 9.
#pdf   -1    1  1.854537e-03  4.522034e-01  1.763729e+02  1.227899e+00  4.245767e-02
</event>
<event>
    12  9999  1.000000e+00  2.091877e+02  7.891787e-03  1.051620e-01
       21    -1     0     0   101   102  0.0000000000e+00  0.0000000000e+00  4.1341330149e+02  4.1341330149e+02  0.0000000000e+00 0. 9.
       21    -1     0     0   102   103  0.0000000000e+00  0.0000000000e+00 -2.5984896577e+02  2.5984896577e+02  0.0000000000e+00 0. 9.
        6     2     1     2   101     0  7.2091812627e+01  9.5100291650e+01  3.3608047108e+02  3.9639834468e+02  1.7303256833e+02  1.409272e-13 9.
       -6     2     1     2     0   103 -7.2091812627e+01 -9.5100291650e+01 -1.8251613536e+02  2.7686392258e+02  1.7058779863e+02  3.135766e-16 9.
       24     2     3     0     0     0  4.8301738678e+01  1.3097824869e+02  2.9827044542e+02  3.3890196688e+02  8.0005780760e+01  1.196001e-13 9.
        5     1     3     0   101     0  2.3790073949e+01 -3.5877957037e+01  3.7810025658e+01  5.7496377798e+01  4.8000000000e+00 0. 9.
      -24     2     4     0     0     0 -3.5347014696e+01 -1.1739149824e+01 -1.7214348475e+01  8.8059841884e+01  7.7916512195e+01  1.349447e-14 9.
       -5     1     4     0     0   103 -3.6744797931e+01 -8.3361141825e+01 -1.6530178688e+02  1.8880408070e+02  4.8000000000e+00 0. 9.
      -11     1     5     0     0     0 -1.7994603514e+01  1.9990365557e+01  2.5580931418e+01  3.7118789355e+01  5.1100000000e-04 0. 9.
       12     1     5     0     0     0  6.6296342192e+01  1.1098788313e+02  2.7268951401e+02  3.0178317753e+02  0.0000000000e+00 0. 9.
        1     1     7     0   104     0  1.5940871840e+01  1.8286874083e+00 -2.9517892907e+01  3.3598666556e+01  3.3000000000e-01 0. 9.
       -2     1     7     0     0   104 -5.1287886537e+01 -1.3567837232e+01  1.2303544432e+01  5.4461175328e+01  3.3000000000e-01 0. 9.
#pdf   21   21  6.360205e-02  3.997676e-02  2.081862e+02  1.444667e+00  2.401204e+00
</event>
<event>
    12  9999  1.000000e+00  1.959444e+02  7.885885e-03  1.059987e-01
       21    -1     0     0   101   102  0.0000000000e+00  0.0000000000e+00  8.7236559979e+02  8.7236559979e+02  0.0000000000e+00 0. 9.
       21    -1     0     0   103   101  0.0000000000e+00  0.0000000000e+00 -4.5940884206e+01  4.5940884206e+01  0.0000000000e+00 0. 9.
        6     2     1     2   103     0 -2.4826696658e+01  9.2401221871e+01  5.0779604007e+02  5.4437745155e+02  1.7127650385e+02  2.004349e-14 9.
       -6     2     1     2     0   102  2.4826696658e+01 -9.2401221871e+01  3.1862867552e+02  3.7392903245e+02  1.7071712796e+02  2.214189e-13 9.
       24     2     3     0     0     0  4.4623417370e+01  4.8376220893e+01  2.5305872677e+02  2.7665435236e+02  9.0373687324e+01  9.320373e-15 9.
        5     1     3     0   103     0 -6.9450114028e+01  4.4025000977e+01  2.5473731331e+02  2.6772309919e+02  4.8000000000e+00 0. 9.
      -24     2     4     0     0     0 -4.2001977516e+01 -1.7517019367e+01  1.2199999486e+02  1.5311328679e+02  8.0552267271e+01  1.234845e-13 9.
       -5     1     4     0     0   102  6.6828674173e+01 -7.4884202503e+01  1.9662868066e+02  2.2081574566e+02  4.8000000000e+00 0. 9.
       -1     1     5     0     0   104  8.5616700754e+00  1.3860946427e+00  1.8977781860e+02  1.8997619005e+02  3.3000000000e-01 0. 9.
        2     1     5     0   104     0  3.6061747295e+01  4.6990126251e+01  6.3280908166e+01  8.6678162309e+01  3.3000000000e-01 0. 9.
        1     1     7     0   105     0 -6.2068499437e+01 -2.7832981862e+01  1.0389245816e+02  1.2418101814e+02  3.3000000000e-01 0. 9.
       -2     1     7     0     0   105  2.0066521921e+01  1.0315962495e+01  1.8107536697e+01  2.8932268654e+01  3.3000000000e-01 0. 9.
#pdf   21   21  1.342101e-01  7.067828e-03  1.957005e+02  5.341759e-01  1.051916e+01
</event>
<event>
    12  9999  1.000000e+00  2.030008e+02  7.889076e-03  1.055444e-01
       -5    -1     0     0     0   101  0.0000000000e+00  0.0000000000e+00  7.6240170620e+02  7.6240170620e+02  0.0000000000e+00 0. 9.
        5    -1     0     0   102     0  0.0000000000e+00  0.0000000000e+00 -1.0108073988e+02  1.0108073988e+02  0.0000000000e+00 0. 9.
       -6     2     1     2     0   101 -6.6057748427e+01  8.7976629598e+01  3.6859603775e+01  2.0709617615e+02  1.7154207153e+02  1.884007e-14 9.
        6     2     1     2   102     0  6.6057748427e+01 -8.7976629598e+01  6.2446136254e+02  6.5638626993e+02  1.6966858449e+02  9.368637e-14 9.
      -24     2     3     0     0     0 -1.0551731670e+02  3.6855679168e+01  1.3675234476e+01  1.3831417211e+02  8.0321559729e+01  2.769666e-13 9.
       -5     1     3     0     0   101  3.9459568270e+01  5.1120950430e+01  2.3184369298e+01  6.8782004047e+01  4.8000000000e+00 0. 9.
       24     2     4     0     0     0  7.6646967118e+01 -2.9788909943e+01  2.2544865587e+02  2.5298557291e+02  8.0077880483e+01  1.079384e-14 9.
        5     1     4     0   102     0 -1.0589218691e+01 -5.8187719656e+01  3.9901270668e+02  4.0340069702e+02  4.8000000000e+00 0. 9.
        3     1     5     0   103     0 -8.8625949499e+01 -2.0650672204e+00  2.8888909933e+01  9.3239704763e+01  5.0000000000e-01 0. 9.
       -2     1     5     0     0   103 -1.6891367198e+01  3.8920746388e+01 -1.5213675457e+01  4.5074467342e+01  3.3000000000e-01 0. 9.
       -3     1     7     0     0   104  3.2402249342e+01 -5.4882608142e+01  1.1874603893e+02  1.3476972286e+02  5.0000000000e-01 0. 9.
        4     1     7     0   104     0  4.4244717776e+01  2.5093698199e+01  1.0670261694e+02  1.1821585004e+02  1.5000000000e+00 0. 9.
#pdf   -5    5  1.172926e-01  1.555088e-02  2.022151e+02  1.730870e-02  1.649021e-01
</event>
<event>
    12  9999  1.000000e+00  1.888723e+02  7.882571e-03  1.064749e-01
       21    -1     0     0   101   102  0.0000000000e+00  0.0000000000e+00  3.8973296416e+02  3.8973296416e+02  0.0000000000e+00 0. 9.
       21    -1     0     0   102   103  0.0000000000e+00  0.0000000000e+00 -1.4620456754e+02  1.4620456754e+02  0.0000000000e+00 0. 9.
        6     2     1     2   101     0 -4.8014439799e+01  6.5107573442e+01  2.8566335939e+02  3.4250033100e+02  1.7075871657e+02  1.210014e-13 9.
       -6     2     1     2     0   103  4.8014439799e+01 -6.5107573442e+01 -4.2134962769e+01  1.9343720070e+02  1.7058198316e+02  1.550046e-13 9.
       24     2     3     0     0     0 -3.3488694192e+01  4.9315410847e+01  6.6417500166e+01  1.2215474680e+02  8.3408605387e+01  8.602014e-14 9.
        5     1     3     0   101     0 -1.4525745608e+01  1.5792162595e+01  2.1924585923e+02  2.2034558419e+02  4.8000000000e+00 0. 9.
      -24     2     4     0     0     0 -2.8296453173e+01 -3.7899098011e+00  8.2955506579e+00  8.3212498640e+01  7.7720338978e+01  5.833957e-14 9.
       -5     1     4     0     0   103  7.6310892973e+01 -6.1317663641e+01 -5.0430513427e+01  1.1022470206e+02  4.8000000000e+00 0. 9.
       -1     1     5     0     0   104 -7.9543153994e+00 -8.6973007282e+00  5.6840894244e+01  5.8050928777e+01  3.3000000000e-01 0. 9.
        2     1     5     0   104     0 -2.5534378792e+01  5.8012711575e+01  9.5766059220e+00  6.4103818026e+01  3.3000000000e-01 0. 9.
       13     1     7     0     0     0  1.6211966082e+01  1.0723917506e+01  2.6600633971e+01  3.2945942733e+01  1.0566000000e-01  5.853017e+05 9.
      -14     1     7     0     0     0 -4.4508419255e+01 -1.4513827307e+01 -1.8305083313e+01  5.0266555907e+01  0.0000000000e+00 0. 9.
#pdf   21   21  5.995892e-02  2.249301e-02  1.887925e+02  1.558253e+00  4.166069e+00
</event>
<event>
    12  9999  1.000000e+00  1.510281e+02  7.862477e-03  1.096569e-01
       21    -1     0     0   101   102  0.0000000000e+00  0.0000000000e+00  2.8094921319e+01  2.8094921319e+01  0.0000000000e+00 0. 9.
       21    -1     0     0   102   103  0.0000000000e+00  0.0000000000e+00 -1.3016351110e+03  1.3016351110e+03  0.0000000000e+00 0. 9.
        6     2     1     2   101     0  3.2354304893e+01  9.1170725533e-01 -1.7647695931e+02  2.1845645515e+02  1.2462533199e+02  1.591859e-13 9.
       -6     2     1     2     0   103 -3.2354304893e+01 -9.1170725533e-01 -1.0970632304e+03  1.1112735772e+03  1.7416543752e+02  1.825761e-14 9.
       24     2     3     0     0     0  3.8421330312e+01  3.1584594025e+01 -1.2779291969e+02  1.6039777368e+02  8.3202345377e+01  1.369113e-13 9.
        5     1     3     0   101     0 -6.0670254198e+00 -3.0672886770e+01 -4.8684039620e+01  5.8058681470e+01  4.8000000000e+00 0. 9.
      -24     2     4     0     0     0  1.0698084479e+01 -2.8173311169e+00 -2.4611358153e+02  2.5921989078e+02  8.0626734984e+01  1.003103e-13 9.
       -5     1     4     0     0   103 -4.3052389372e+01  1.9056238615e+00 -8.5094964887e+02  8.5205368642e+02  4.8000000000e+00 0. 9.
       -3     1     5     0     0   104  3.0617441339e+01  5.8409270730e+01 -1.0639126180e+02  1.2517356434e+02  5.0000000000e-01 0. 9.
        4     1     5     0   104     0  7.8038889739e+00 -2.6824676705e+01 -2.1401657886e+01  3.5224209341e+01  1.5000000000e+00 0. 9.
        3     1     7     0   105     0 -1.5962185256e+01  3.1927373874e+01 -1.3849496953e+02  1.4302186947e+02  5.0000000000e-01 0. 9.
       -4     1     7     0     0   105  2.6660269735e+01 -3.4744704991e+01 -1.0761861200e+02  1.1619802130e+02  1.5000000000e+00 0. 9.
#pdf   21   21  4.322296e-03  2.002516e-01  1.287599e+02  1.453672e+01  2.870213e-01
</event>
<event>
    12  9999  1.000000e+00  1.922500e+02  7.884169e-03  1.062447e-01
        2    -1     0     0   101     0  0.0000000000e+00  0.0000000000e+00  5.2083468412e+02  5.2083468412e+02  0.0000000000e+00 0. 9.
       -2    -1     0     0     0   102  0.0000000000e+00  0.0000000000e+00 -7.0978217945e+01  7.0978217945e+01  0.0000000000e+00 0. 9.
        6     2     1     2   101     0 -6.6610426141e+01 -5.5918610202e+01  2.2864649727e+02  2.9843688633e+02  1.7094301557e+02  5.927660e-14 9.
       -6     2     1     2     0   102  6.6610426141e+01  5.5918610202e+01  2.2120996891e+02  2.9337601574e+02  1.7196452084e+02  1.077951e-15 9.
       24     2     3     0     0     0 -6.1681316036e+01 -8.4123753832e+00  4.8738285179e+01  1.1223499791e+02  7.9661292401e+01  2.670912e-13 9.
        5     1     3     0   101     0 -4.9291101057e+00 -4.7506234819e+01  1.7990821209e+02  1.8620188842e+02  4.8000000000e+00 0. 9.
      -24     2     4     0     0     0 -4.6119686534e+00 -2.2760460926e+01  6.3902854875e+01  1.0355611720e+02  7.8108806880e+01  2.183381e-13 9.
       -5     1     4     0     0   102  7.1222394795e+01  7.8679071128e+01  1.5730711404e+02  1.8981989854e+02  4.8000000000e+00 0. 9.
       -1     1     5     0     0   103 -3.2808659938e+01  3.2639884535e+00  6.8029317873e+01  7.5598669154e+01  3.3000000000e-01 0. 9.
        2     1     5     0   103     0 -2.8872656098e+01 -1.1676363837e+01 -1.9291032694e+01  3.6636328760e+01  3.3000000000e-01 0. 9.
        3     1     7     0   104     0  2.3597205164e+01 -4.0958876151e+01  3.1027295542e+01  5.6545563007e+01  5.0000000000e-01 0. 9.
       -4     1     7     0     0   104 -2.8209173818e+01  1.8198415226e+01  3.2875559333e+01  4.7010554194e+01  1.5000000000e+00 0. 9.
#pdf    2   -2  8.012841e-02  1.091973e-02  1.917951e+02  5.968606e-01  4.944309e-01
</event>
<event>
    12  9999  1.000000e+00  1.777661e+02  7.877115e-03  1.072695e-01
       21    -1     0     0   101   102  0.0000000000e+00  0.0000000000e+00  6.8135113582e+01  6.8135113582e+01  0.0000000000e+00 0. 9.
       21    -1     0     0   103   101  0.0000000000e+00  0.0000000000e+00 -5.8099388459e+02  5.8099388459e+02  0.0000000000e+00 0. 9.
        6     2     1     2   103     0 -2.5935777737e+01  4.1022298062e+01 -1.1128546250e+02  2.1018776671e+02  1.7157782376e+02  8.407882e-15 9.
       -6     2     1     2     0   102  2.5935777737e+01 -4.1022298062e+01 -4.0157330851e+02  4.3894123146e+02  1.7044878722e+02  1.067329e-14 9.
       24     2     3     0     0     0 -7.0208782217e+01  5.3243183270e+01 -1.1302807477e+02  1.6397601865e+02  7.9678600270e+01  1.174314e-13 9.
        5     1     3     0   103     0  4.4273004480e+01 -1.2220885209e+01  1.7426122735e+00  4.6211748057e+01  4.8000000000e+00 0. 9.
      -24     2     4     0     0     0  7.1979107471e+01 -5.7283069470e+01 -3.3173285100e+02  3.5358825609e+02  8.0719442839e+01  2.925688e-14 9.
       -5     1     4     0     0   102 -4.6043329734e+01  1.6260771409e+01 -6.9840457509e+01  8.5352975372e+01  4.8000000000e+00 0. 9.
       -1     1     5     0     0   104 -7.1392788542e+01  1.3335680700e+01 -4.6039157156e+01  8.5991182845e+01  3.3000000000e-01 0. 9.
        2     1     5     0   104     0  1.1840063249e+00  3.9907502570e+01 -6.6988917615e+01  7.7984835805e+01  3.3000000000e-01 0. 9.
        1     1     7     0   105     0 -7.9576680720e+00  1.3441588587e+01 -3.9920792774e+01  4.2869329137e+01  3.3000000000e-01 0. 9.
       -2     1     7     0     0   105  7.9936775543e+01 -7.0724658057e+01 -2.9181205822e+02  3.1071892695e+02  3.3000000000e-01 0. 9.
#pdf   21   21  1.048233e-02  8.938367e-02  1.772238e+02  7.817805e+00  9.617144e-01
</event>
<event>
    12  9999  1.000000e+00  1.940501e+02  7.885009e-03  1.061241e-01
       21    -1     0     0   101   102  0.0000000000e+00  0.0000000000e+00  1.5828901011e+02  1.5828901011e+02  0.0000000000e+00 0. 9.
       21    -1     0     0   103   101  0.0000000000e+00  0.0000000000e+00 -2.4377109874e+02  2.4377109874e+02  0.0000000000e+00 0. 9.
        6     2     1     2   103     0 -8.1847772439e+01 -2.9333384441e+01 -1.1026774286e+01  1.9138230996e+02  1.7013551516e+02  1.480001e-13 9.
       -6     2     1     2     0   102  8.1847772439e+01  2.9333384441e+01 -7.4455314348e+01  2.1067779889e+02  1.7686728306e+02  8.391884e-14 9.
       24     2     3     0     0     0 -2.2566026878e+01  7.0032766636e+00  5.2332196195e+01  9.7190604178e+01  7.8416091008e+01  4.065590e-14 9.
        5     1     3     0   103     0 -5.9281745560e+01 -3.6336661105e+01 -6.3358970481e+01  9.4191705778e+01  4.8000000000e+00 0. 9.
      -24     2     4     0     0     0  1.7004929366e+01 -4.6923426714e+01 -2.2562896986e+01  9.7825867031e+01  8.1054551646e+01  4.659262e-16 9.
       -5     1     4     0     0   102  6.4842843072e+01  7.6256811156e+01 -5.1892417362e+01  1.1285193186e+02  4.8000000000e+00 0. 9.
       -3     1     5     0     0   104 -1.4562720910e+01 -3.4512143247e+01  1.3667360033e+01  3.9877407163e+01  5.0000000000e-01 0. 9.
        4     1     5     0   104     0 -8.0033059688e+00  4.1515419910e+01  3.8664836161e+01  5.7313197015e+01  1.5000000000e+00 0. 9.
        1     1     7     0   105     0  2.6976926526e+01 -8.0466565688e+00  2.3541085568e+01  3.6698703743e+01  3.3000000000e-01 0. 9.
       -2     1     7     0     0   105 -9.9719971603e+00 -3.8876770145e+01 -4.6103982553e+01  6.1127163287e+01  3.3000000000e-01 0. 9.
#pdf   21   21  2.435216e-02  3.750325e-02  1.910644e+02  3.878893e+00  2.572712e+00
</event>
<event>
    12  9999  1.000000e+00  1.807750e+02  7.878626e-03  1.070483e-01
       21    -1     0     0   101   102  0.0000000000e+00  0.0000000000e+00  2.0199463804e+01  2.0199463804e+01  0.0000000000e+00 0. 9.
       21    -1     0     0   103   101  0.0000000000e+00  0.0000000000e+00 -1.6202342994e+03  1.6202342994e+03  0.0000000000e+00 0. 9.
        6     2     1     2   103     0 -4.1020018130e+01 -4.2288396831e+01 -8.3081338647e+02  8.5021977936e+02  1.7073909829e+02  2.310936e-13 9.
       -6     2     1     2     0   102  4.1020018130e+01  4.2288396831e+01 -7.6922144911e+02  7.9021398383e+02  1.7107177462e+02  4.291019e-13 9.
       24     2     3     0     0     0  3.3445560044e+01 -4.5659195185e+01 -3.3803547193e+02  3.5181271915e+02  7.9377839970e+01  8.643107e-15 9.
        5     1     3     0   103     0 -7.4465578174e+01  3.3707983539e+00 -4.9277791454e+02  4.9840706021e+02  4.8000000000e+00 0. 9.
      -24     2     4     0     0     0  8.9186550025e+01  8.6979624234e+00 -5.5190670365e+02  5.6505388374e+02  8.1578102059e+01  4.170155e-14 9.
       -5     1     4     0     0   102 -4.8166531895e+01  3.3590434408e+01 -2.1731474546e+02  2.2516010009e+02  4.8000000000e+00 0. 9.
      -11     1     5     0     0     0  5.1243707706e+01 -4.4791558220e+00 -2.0760614516e+02  2.1388382811e+02  5.1100000000e-04 0. 9.
       12     1     5     0     0     0 -1.7798147662e+01 -4.1180039363e+01 -1.3042932677e+02  1.3792889104e+02  0.0000000000e+00 0. 9.
       15     1     7     0     0     0  2.8889520654e+01 -9.4756076103e+00 -4.5535895814e+01  5.4781990107e+01  1.7768200000e+00  7.483057e-02 9.
      -16     1     7     0     0     0  6.0297029370e+01  1.8173570034e+01 -5.0637080784e+02  5.1027189363e+02  0.0000000000e+00 0. 9.
#pdf   21   21  3.107610e-03  2.492668e-01  1.806178e+02  1.847798e+01  1.696919e-01
</event>
<event>
    12  9999  1.000000e+00  2.300233e+02  7.900370e-03  1.039708e-01
       21    -1     0     0   101   102  0.0000000000e+00  0.0000000000e+00  4.9224402389e+01  4.9224402389e+01  0.0000000000e+00 0. 9.
       21    -1     0     0   103   101  0.0000000000e+00  0.0000000000e+00 -1.5937224062e+03  1.5937224062e+03  0.0000000000e+00 0. 9.
        6     2     1     2   103     0  3.7935216511e+01  1.4916152139e+02 -3.0854401136e+02  3.8616602014e+02  1.7388659538e+02  5.827156e-14 9.
       -6     2     1     2     0   102 -3.7935216511e+01 -1.4916152139e+02 -1.2359539924e+03  1.2567807884e+03  1.6801023373e+02  3.679768e-13 9.
       24     2     3     0     0     0  5.3414665835e+01  1.6108382276e+02 -3.1562686607e+02  3.6483619473e+02  6.8439797754e+01  4.144953e-14 9.
        5     1     3     0   103     0 -1.5479449325e+01 -1.1922301375e+01  7.0828547077e+00  2.1329825416e+01  4.8000000000e+00 0. 9.
      -24     2     4     0     0     0 -4.2860462864e+01 -1.7557445772e+02 -1.1399659496e+03  1.1569877746e+03  8.0218044564e+01  3.669554e-14 9.
       -5     1     4     0     0   102  4.9252463533e+00  2.6412936328e+01 -9.5988042802e+01  9.9793013874e+01  4.8000000000e+00 0. 9.
       -3     1     5     0     0   104  9.5158871363e-02  2.5110797788e+01 -1.0862783057e+02  1.1149357289e+02  5.0000000000e-01 0. 9.
        4     1     5     0   104     0  5.3319506964e+01  1.3597302497e+02 -2.0699903550e+02  2.5334262184e+02  1.5000000000e+00 0. 9.
       15     1     7     0     0     0 -2.6197400078e+01 -3.8296522650e+01 -5.0541771015e+02  5.0754620109e+02  1.7768200000e+00  2.318870e-02 9.
      -16     1     7     0     0     0 -1.6663062786e+01 -1.3727793507e+02 -6.3454823948e+02  6.4944157346e+02  0.0000000000e+00 0. 9.
#pdf   21   21  7.572985e-03  2.451881e-01  2.278501e+02  1.003068e+01  1.680465e-01
</event>
<event>
    12  9999  1.000000e+00  2.107286e+02  7.892449e-03  1.050689e-01
        2    -1     0     0   101     0  0.0000000000e+00  0.0000000000e+00  1.6427996538e+03  1.6427996538e+03  0.0000000000e+00 0. 9.
       -2    -1     0     0     0   102  0.0000000000e+00  0.0000000000e+00 -2.7064060522e+01  2.7064060522e+01  0.0000000000e+00 0. 9.
        6     2     1     2   101     0 -8.6744455351e+01  8.4965574629e+01  7.7700992045e+02  8.0495995662e+02  1.7167517549e+02  4.007637e-14 9.
       -6     2     1     2     0   102  8.6744455351e+01 -8.4965574629e+01  8.3872567285e+02  8.6490375772e+02  1.7278311960e+02  7.157770e-14 9.
       24     2     3     0     0     0 -1.0316858708e+02  3.7227174235e+01  3.5626236481e+02  3.8116725664e+02  7.9598901365e+01  3.026512e-14 9.
        5     1     3     0   101     0  1.6424131726e+01  4.7738400394e+01  4.2074755564e+02  4.2379269997e+02  4.8000000000e+00 0. 9.
      -24     2     4     0     0     0  1.3505043429e+01 -7.0440920995e+01  2.4433494742e+02  2.6582250154e+02  7.6274020807e+01  2.749136e-13 9.
       -5     1     4     0     0   102  7.3239411922e+01 -1.4524653634e+01  5.9439072543e+02  5.9908125618e+02  4.8000000000e+00 0. 9.
       -3     1     5     0     0   103  3.0498388420e+00  2.1439382321e+00  1.1680756701e+02  1.1686811242e+02  5.0000000000e-01 0. 9.
        4     1     5     0   103     0 -1.0621842592e+02  3.5083236003e+01  2.3945479779e+02  2.6429914423e+02  1.5000000000e+00 0. 9.
        1     1     7     0   104     0 -8.6004351477e+00  1.6903569742e+00  1.2048305125e+02  1.2080190119e+02  3.3000000000e-01 0. 9.
       -2     1     7     0     0   104  2.2105478577e+01 -7.2131277969e+01  1.2385189616e+02  1.4502060036e+02  3.3000000000e-01 0. 9.
#pdf    2   -2  2.527384e-01  4.163702e-03  2.102763e+02  3.705344e-01  8.409487e-01
</event>
<event>
    12  9999  1.000000e+00  1.969367e+02  7.886340e-03  1.059336e-01
       21    -1     0     0   101   102  0.0000000000e+00  0.0000000000e+00  1.3934035415e+02  1.3934035415e+02  0.0000000000e+00 0. 9.
       21    -1     0     0   102   103  0.0000000000e+00  0.0000000000e+00 -5.5131368767e+02  5.5131368767e+02  0.0000000000e+00 0. 9.
        6     2     1     2   101     0 -2.4079561683e+01  9.4766417462e+01  3.7466430027e+01  1.9960539362e+02  1.6993551899e+02  2.364680e-13 9.
       -6     2     1     2     0   103  2.4079561683e+01 -9.4766417462e+01 -4.4943976355e+02  4.9104864820e+02  1.7196562060e+02  1.417378e-13 9.
       24     2     3     0     0     0 -3.8961341850e+01  1.2846879515e+02  4.1757751537e+01  1.6220521871e+02  8.0898737176e+01  3.009902e-13 9.
        5     1     3     0   101     0  1.4881780167e+01 -3.3702377690e+01 -4.2913215104e+00  3.7400174909e+01  4.8000000000e+00 0. 9.
      -24     2     4     0     0     0  4.3121976275e+01 -1.0266044939e+02 -4.4954165670e+02  4.6988311783e+02  7.9396288334e+01  5.867542e-14 9.
       -5     1     4     0     0   103 -1.9042414592e+01  7.8940319277e+00  1.0189315594e-01  2.1165530369e+01  4.8000000000e+00 0. 9.
       -3     1     5     0     0   104  7.4831375318e+00  1.7232077503e+01  3.7069665973e+01  4.1561424154e+01  5.0000000000e-01 0. 9.
        4     1     5     0   104     0 -4.6444479382e+01  1.1123671765e+02  4.6880855640e+00  1.2064379456e+02  1.5000000000e+00 0. 9.
        3     1     7     0   105     0  1.0639667312e+01 -1.0139464803e+02 -3.7363752645e+02  3.8729746751e+02  5.0000000000e-01 0. 9.
       -4     1     7     0     0   105  3.2482308963e+01 -1.2658013629e+00 -7.5904130253e+01  8.2585650316e+01  1.5000000000e+00 0. 9.
#pdf   21   21  2.143698e-02  8.481749e-02  1.960576e+02  4.343506e+00  1.019703e+00
</event>
<event>
    12  9999  1.000000e+00  2.186050e+02  7.895765e-03  1.046061e-01
       21    -1     0     0   101   102  0.0000000000e+00  0.0000000000e+00  4.2229514573e+02  4.2229514573e+02  0.0000000000e+00 0. 9.
       21    -1     0     0   102   103  0.0000000000e+00  0.0000000000e+00 -1.1317250291e+02  1.1317250291e+02  0.0000000000e+00 0. 9.
        6     2     1     2   101     0  5.0591550514e+01 -1.2595944946e+02  1.5710190304e+02  2.6929894307e+02  1.7150983910e+02  3.912040e-14 9.
       -6     2     1     2     0   103 -5.0591550514e+01  1.2595944946e+02  1.5202073977e+02  2.6616870556e+02  1.7120218050e+02  1.171815e-13 9.
       24     2     3     0     0     0  4.8948396448e+01 -1.0815327752e+01  4.1249368750e+01  1.0588009954e+02  8.3643100293e+01  2.084761e-14 9.
        5     1     3     0   101     0  1.6431540655e+00 -1.1514412171e+02  1.1585253429e+02  1.6341884353e+02  4.8000000000e+00 0. 9.
      -24     2     4     0     0     0 -9.2068443992e+01  1.1514686348e+02  8.8953831354e+01  1.8976373422e+02  7.9762724154e+01  3.353761e-14 9.
       -5     1     4     0     0   103  4.1476893478e+01  1.0812585980e+01  6.3066908418e+01  7.6404971341e+01  4.8000000000e+00 0. 9.
       -3     1     5     0     0   104  3.1521977212e+01  1.2817045139e+01  6.1424930133e+01  7.0222387708e+01  5.0000000000e-01 0. 9.
        4     1     5     0   104     0  1.7426419236e+01 -2.3632372891e+01 -2.0175561383e+01  3.5657711830e+01  1.5000000000e+00 0. 9.
        3     1     7     0   105     0 -7.0953003703e+01  1.2473629445e+02  6.9462866674e+01  1.5943278124e+02  5.0000000000e-01 0. 9.
       -4     1     7     0     0   105 -2.1115440289e+01 -9.5894309631e+00  1.9490964680e+01  3.0330952985e+01  1.5000000000e+00 0. 9.
#pdf   21   21  6.496848e-02  1.741115e-02  2.184845e+02  1.403605e+00  5.188972e+00
</event>
<event>
    12  9999  1.000000e+00  1.831325e+02  7.879792e-03  1.068781e-01
       21    -1     0     0   101   102  0.0000000000e+00  0.0000000000e+00  7.1239380401e+01  7.1239380401e+01  0.0000000000e+00 0. 9.
       21    -1     0     0   102   103  0.0000000000e+00  0.0000000000e+00 -4.7387449759e+02  4.7387449759e+02  0.0000000000e+00 0. 9.
        6     2     1     2   101     0  8.0577794388e+00  6.7007357960e+01 -1.7862112950e+02  2.5538579286e+02  1.6959210317e+02  2.629088e-14 9.
       -6     2     1     2     0   103 -8.0577794388e+00 -6.7007357960e+01 -2.2401398769e+02  2.8972808514e+02  1.7089523927e+02  6.909884e-14 9.
       24     2     3     0     0     0 -4.4996844427e+01  8.5954418346e+01 -1.0832397561e+02  1.6517207962e+02  7.8325309777e+01  9.875776e-14 9.
        5     1     3     0   101     0  5.3054623866e+01 -1.8947060386e+01 -7.0297153896e+01  9.0213713241e+01  4.8000000000e+00 0. 9.
      -24     2     4     0     0     0 -6.7538477225e+00 -1.1068883465e+02 -1.5411693546e+02  2.0715442376e+02  8.2844993287e+01  6.666733e-14 9.
       -5     1     4     0     0   103 -1.3039317164e+00  4.3681476686e+01 -6.9897052224e+01  8.2573661375e+01  4.8000000000e+00 0. 9.
      -13     1     5     0     0     0  9.8912276703e+00 -9.5971324650e+00 -6.9271267115e+00  1.5425225602e+01  1.0566000000e-01  4.100025e+05 9.
       14     1     5     0     0     0 -5.4888072097e+01  9.5551550811e+01 -1.0139684890e+02  1.4974685401e+02  0.0000000000e+00 0. 9.
        1     1     7     0   104     0  6.6645472318e+00 -5.3040467330e+01 -1.3460326017e+02  1.4483043158e+02  3.3000000000e-01 0. 9.
       -2     1     7     0     0   104 -1.3418394954e+01 -5.7648367316e+01 -1.9513675293e+01  6.2323992176e+01  3.3000000000e-01 0. 9.
#pdf   21   21  1.095990e-02  7.290377e-02  1.825278e+02  7.556316e+00  1.240189e+00
</event>
<event>
    12  9999  1.000000e+00  1.887979e+02  7.882536e-03  1.064800e-01
       21    -1     0     0   101   102  0.0000000000e+00  0.0000000000e+00  6.6213691258e+01  6.6213691258e+01  0.0000000000e+00 0. 9.
       21    -1     0     0   102   103  0.0000000000e+00  0.0000000000e+00 -5.5567792456e+02  5.5567792456e+02  0.0000000000e+00 0. 9.
        6     2     1     2   101     0 -8.5382949099e+01  2.8310843583e+01 -3.0547073561e+02  3.6186741050e+02  1.7188339247e+02  3.114127e-13 9.
       -6     2     1     2     0   103  8.5382949099e+01 -2.8310843583e+01 -1.8399349769e+02  2.6002420531e+02  1.6020995068e+02  3.785583e-13 9.
       24     2     3     0     0     0 -1.1780462596e+02 -4.7948750121e+00 -1.9238329417e+02  2.3956057036e+02  8.0479899797e+01  8.331797e-14 9.
        5     1     3     0   101     0  3.2421676861e+01  3.3105718595e+01 -1.1308744144e+02  1.2230684014e+02  4.8000000000e+00 0. 9.
      -24     2     4     0     0     0  5.6600251579e+01 -7.4381675788e+01 -1.5099527052e+02  1.9628341576e+02  8.3614504792e+01  4.734841e-14 9.
       -5     1     4     0     0   103  2.8782697519e+01  4.6070832205e+01 -3.2998227172e+01  6.3740789555e+01  4.8000000000e+00 0. 9.
      -13     1     5     0     0     0 -7.6175719851e+01  1.6392361943e+00 -5.0139524186e+01  9.1210802210e+01  1.0566000000e-01  2.194707e+05 9.
       14     1     5     0     0     0 -4.1628906109e+01 -6.4341112064e+00 -1.4224376998e+02  1.4834976815e+02  0.0000000000e+00 0. 9.
       15     1     7     0     0     0  5.6854285859e+00 -5.8526600023e+01 -3.4589286209e+01  6.8244141274e+01  1.7768200000e+00  8.890064e-02 9.
      -16     1     7     0     0     0  5.0914822993e+01 -1.5855075765e+01 -1.1640598431e+02  1.2803927448e+02  0.0000000000e+00 0. 9.
#pdf   21   21  1.018672e-02  8.548891e-02  1.837362e+02  7.995485e+00  1.015486e+00
</event>
<event>
    12  9999  1.000000e+00  2.210395e+02  7.896766e-03  1.044673e-01
       21    -1     0     0   101   102  0.0000000000e+00  0.0000000000e+00  2.8598216805e+01  2.8598216805e+01  0.0000000000e+00 0. 9.
       21    -1     0     0   103   101  0.0000000000e+00  0.0000000000e+00 -1.7208806646e+03  1.7208806646e+03  0.0000000000e+00 0. 9.
        6     2     1     2   103     0 -5.8808754167e+01 -1.2715816695e+02 -9.2088767440e+02  9.4706790626e+02  1.7110184458e+02  2.321611e-13 9.
       -6     2     1     2     0   102  5.8808754167e+01  1.2715816695e+02 -7.7139477344e+02  8.0241097518e+02  1.7083854255e+02  4.987743e-13 9.
       24     2     3     0     0     0 -1.2177257414e+01 -7.2731334748e+01 -2.5764935919e+02  2.7995106543e+02  8.0939941278e+01  3.317201e-13 9.
        5     1     3     0   103     0 -4.6631496753e+01 -5.4426832205e+01 -6.6323831521e+02  6.6711684083e+02  4.8000000000e+00 0. 9.
      -24     2     4     0     0     0  2.7840159941e+01  7.2257776942e+01 -2.2251924695e+02  2.4990713789e+02  8.3321674672e+01  2.275707e-13 9.
       -5     1     4     0     0   102  3.0968594226e+01  5.4900390011e+01 -5.4887552648e+02  5.5250383729e+02  4.8000000000e+00 0. 9.
      -11     1     5     0     0     0 -4.1420200374e+01 -5.8756235424e+01 -2.1281280411e+02  2.2462684121e+02  5.1100000000e-04 0. 9.
       12     1     5     0     0     0  2.9242942960e+01 -1.3975099324e+01 -4.4836555078e+01  5.5324224218e+01  0.0000000000e+00 0. 9.
        1     1     7     0   104     0  2.7754218302e+01 -6.5772315229e+00 -1.0184039380e+02  1.0575978119e+02  3.3000000000e-01 0. 9.
       -2     1     7     0     0   104  8.5941639552e-02  7.8835008465e+01 -1.2067885316e+02  1.4414735670e+02  3.3000000000e-01 0. 9.
#pdf   21   21  4.399726e-03  2.647509e-01  2.209377e+02  1.477391e+01  1.399973e-01
</event>
<event>
    12  9999  1.000000e+00  1.869769e+02  7.881663e-03  1.066063e-01
       21    -1     0     0   101   102  0.0000000000e+00  0.0000000000e+00  4.1761989493e+02  4.1761989493e+02  0.0000000000e+00 0. 9.
       21    -1     0     0   103   101  0.0000000000e+00  0.0000000000e+00 -8.4641423569e+01  8.4641423569e+01  0.0000000000e+00 0. 9.
        6     2     1     2   103     0 -4.9733022691e+01  4.5148758827e+01  1.3931429966e+02  2.3234061002e+02  1.7338368148e+02  1.409976e-13 9.
       -6     2     1     2     0   102  4.9733022691e+01 -4.5148758827e+01  1.9366417170e+02  2.6992070848e+02  1.7561205396e+02  6.665647e-13 9.
       24     2     3     0     0     0 -8.4052377097e+01  6.8398207972e+01  1.3267596691e+02  1.9008587733e+02  8.2380893514e+01  8.657019e-14 9.
        5     1     3     0   103     0  3.4319354407e+01 -2.3249449146e+01  6.6383327453e+00  4.2254732683e+01  4.8000000000e+00 0. 9.
      -24     2     4     0     0     0  6.8390413156e+01 -8.2333561870e+01  9.7402873759e+01  1.6494411453e+02  7.9140236789e+01  7.100309e-14 9.
       -5     1     4     0     0   102 -1.8657390465e+01  3.7184803044e+01  9.6261297940e+01  1.0497659395e+02  4.8000000000e+00 0. 9.
       -3     1     5     0     0   104 -2.6057987897e+01 -2.4146958992e+00 -3.0737106128e+00  2.6354263155e+01  5.0000000000e-01 0. 9.
        4     1     5     0   104     0 -5.7994389201e+01  7.0812903871e+01  1.3574967752e+02  1.6373161418e+02  1.5000000000e+00 0. 9.
        1     1     7     0   105     0  2.5411436070e+01 -4.7241509605e+01  9.2844270482e-01  5.3651395311e+01  3.3000000000e-01 0. 9.
       -2     1     7     0     0   105  4.2978977086e+01 -3.5092052265e+01  9.6474431054e+01  1.1129271922e+02  3.3000000000e-01 0. 9.
#pdf   21   21  6.424921e-02  1.302176e-02  1.859400e+02  1.440016e+00  6.598897e+00
</event>
<event>
    12  9999  1.000000e+00  2.464600e+02  7.906622e-03  1.031220e-01
       21    -1     0     0   101   102  0.0000000000e+00  0.0000000000e+00  1.6250483875e+02  1.6250483875e+02  0.0000000000e+00 0. 9.
       21    -1     0     0   102   103  0.0000000000e+00  0.0000000000e+00 -3.8407027374e+02  3.8407027374e+02  0.0000000000e+00 0. 9.
        6     2     1     2   101     0 -2.4378566710e+01  1.7609142691e+02 -6.6285281163e+01  2.5568786425e+02  1.7140606838e+02  8.822598e-15 9.
       -6     2     1     2     0   103  2.4378566710e+01 -1.7609142691e+02 -1.5528015383e+02  2.9088724825e+02  1.7000282315e+02  1.748769e-13 9.
       24     2     3     0     0     0  1.6621118998e+01  1.7686582352e+02 -8.1992258512e+01  2.1151408180e+02  8.0359786057e+01  7.039857e-14 9.
        5     1     3     0   101     0 -4.0999685708e+01 -7.7439661701e-01  1.5706977349e+01  4.4173782448e+01  4.8000000000e+00 0. 9.
      -24     2     4     0     0     0  6.6922652563e+00 -1.0566832272e+02 -1.5251658429e+01  1.3307964899e+02  7.9164379924e+01  5.255422e-14 9.
       -5     1     4     0     0   103  1.7686301454e+01 -7.0423104185e+01 -1.4002849540e+02  1.5780759926e+02  4.8000000000e+00 0. 9.
       -3     1     5     0     0   104  2.9244895499e+01  1.5740095787e+02 -4.2423609099e+01  1.6562106769e+02  5.0000000000e-01 0. 9.
        4     1     5     0   104     0 -1.2623776501e+01  1.9464865651e+01 -3.9568649413e+01  4.5893014112e+01  1.5000000000e+00 0. 9.
        3     1     7     0   105     0  1.2713419039e+01  3.9493768046e+00  1.4133099758e+01  1.9422232353e+01  5.0000000000e-01 0. 9.
       -4     1     7     0     0   105 -6.0211537825e+00 -1.0961769953e+02 -2.9384758187e+01  1.1365741664e+02  1.5000000000e+00 0. 9.
#pdf   21   21  2.500074e-02  5.908773e-02  2.459745e+02  3.758245e+00  1.554144e+00
</event>
<event>
    12  9999  1.000000e+00  1.768754e+02  7.876663e-03  1.073360e-01
       21    -1     0     0   101   102  0.0000000000e+00  0.0000000000e+00  2.7779221280e+02  2.7779221280e+02  0.0000000000e+00 0. 9.
       21    -1     0     0   102   103  0.0000000000e+00  0.0000000000e+00 -1.8440224601e+02  1.8440224601e+02  0.0000000000e+00 0. 9.
        6     2     1     2   101     0  9.3732082528e+00  4.3324721017e+01  1.9094702097e+02  2.6056585839e+02  1.7166511951e+02  3.925610e-15 9.
       -6     2     1     2     0   103 -9.3732082528e+00 -4.3324721017e+01 -9.7557054181e+01  2.0162860043e+02  1.7079761476e+02  1.443520e-13 9.
       24     2     3     0     0     0  1.8822766290e+01  4.1664684575e+01  2.1504229780e+02  2.3419025918e+02  8.0694765505e+01  6.806561e-14 9.
        5     1     3     0   101     0 -9.4495580370e+00  1.6600364424e+00 -2.4095276829e+01  2.6375599207e+01  4.8000000000e+00 0. 9.
      -24     2     4     0     0     0 -1.6050141318e+01  3.7714554316e+01 -7.5223956392e+01  1.1716705392e+02  7.9934224626e+01  8.048619e-15 9.
       -5     1     4     0     0   103  6.6769330651e+00 -8.1039275333e+01 -2.2333097789e+01  8.4461546508e+01  4.8000000000e+00 0. 9.
       -3     1     5     0     0   104 -6.5764534342e+00  3.2698625572e+01  2.3611871942e+01  4.0868329433e+01  5.0000000000e-01 0. 9.
        4     1     5     0   104     0  2.5399219724e+01  8.9660590031e+00  1.9143042586e+02  1.9332192975e+02  1.5000000000e+00 0. 9.
        3     1     7     0   105     0 -3.9783445459e+01  2.2793014851e+01 -1.1115719781e+01  4.7181069136e+01  5.0000000000e-01 0. 9.
       -4     1     7     0     0   105  2.3733304141e+01  1.4921539465e+01 -6.4108236611e+01  6.9985984788e+01  1.5000000000e+00 0. 9.
#pdf   21   21  4.273726e-02  2.836958e-02  1.764560e+02  2.261088e+00  3.379377e+00
</event>
<event>
    12  9999  1.000000e+00  2.334328e+02  7.901702e-03  1.037887e-01
       21    -1     0     0   101   102  0.0000000000e+00  0.0000000000e+00  1.7709361874e+03  1.7709361874e+03  0.0000000000e+00 0. 9.
       21    -1     0     0   103   101  0.0000000000e+00  0.0000000000e+00 -3.5901329033e+01  3.5901329033e+01  0.0000000000e+00 0. 9.
        6     2     1     2   103     0  1.0747187172e+02 -1.1679266159e+02  5.2505390364e+02  5.7449119760e+02  1.7078584654e+02  2.118632e-13 9.
       -6     2     1     2     0   102 -1.0747187172e+02  1.1679266159e+02  1.2099809547e+03  1.2323463188e+03  1.7155993042e+02  9.938131e-14 9.
       24     2     3     0     0     0  7.0113312053e+01 -3.6397714373e+01  4.3110983450e+02  4.4523355704e+02  7.8336203423e+01  1.080867e-13 9.
        5     1     3     0   103     0  3.7358559668e+01 -8.0394947216e+01  9.3944069139e+01  1.2925764057e+02  4.8000000000e+00 0. 9.
      -24     2     4     0     0     0  6.1845155439e+00  7.3307046608e+01  4.4549842674e+02  4.5822401024e+02  7.8027072288e+01  1.511820e-14 9.
       -5     1     4     0     0   102 -1.1365638726e+02  4.3485614981e+01  7.6448252795e+02  7.7412230856e+02  4.8000000000e+00 0. 9.
       -3     1     5     0     0   104  3.7139626081e+01 -3.5672172101e+01  9.9998359153e+01  1.1248012056e+02  5.0000000000e-01 0. 9.
        4     1     5     0   104     0  3.2973685972e+01 -7.2554227233e-01  3.3111147535e+02  3.3275343648e+02  1.5000000000e+00 0. 9.
        3     1     7     0   105     0 -3.0590837245e+01  5.0131143811e+01  1.8436978985e+02  1.9349780442e+02  5.0000000000e-01 0. 9.
       -4     1     7     0     0   105  3.6775352789e+01  2.3175902796e+01  2.6112863689e+02  2.6472620582e+02  1.5000000000e+00 0. 9.
#pdf   21   21  2.724517e-01  5.523281e-03  2.331492e+02  1.283060e-01  1.262155e+01
</event>
<event>
    12  9999  1.000000e+00  1.803292e+02  7.878403e-03  1.070808e-01
       21    -1     0     0   101   102  0.0000000000e+00  0.0000000000e+00  1.4643917863e+01  1.4643917863e+01  0.0000000000e+00 0. 9.
       21    -1     0     0   103   101  0.0000000000e+00  0.0000000000e+00 -2.3424063303e+03  2.3424063303e+03  0.0000000000e+00 0. 9.
        6     2     1     2   103     0 -5.6676542350e+01 -7.4827174950e+00 -8.9242577095e+02  9.1037393321e+02  1.7055415591e+02  6.495143e-14 9.
       -6     2     1     2     0   102  5.6676542350e+01  7.4827174950e+00 -1.4353366415e+03  1.4466763150e+03  1.7150179107e+02  2.440826e-14 9.
       24     2     3     0     0     0 -8.1830001935e+01  3.6078157864e+01 -4.6624707607e+02  4.8121013423e+02  7.8607090281e+01  6.370465e-14 9.
        5     1     3     0   103     0  2.5153459586e+01 -4.3560875359e+01 -4.2617869488e+02  4.2916379899e+02  4.8000000000e+00 0. 9.
      -24     2     4     0     0     0 -7.6899944515e-02 -4.3694642915e+01 -4.3697476365e+02  4.4538237482e+02  7.4224578140e+01  1.478779e-14 9.
       -5     1     4     0     0   102  5.6753442294e+01  5.1177360410e+01 -9.9836187784e+02  1.0012939401e+03  4.8000000000e+00 0. 9.
       -1     1     5     0     0   104 -2.4742313687e+01  1.0702587228e+01 -2.9287237110e+01  3.9806765976e+01  3.3000000000e-01 0. 9.
        2     1     5     0   104     0 -5.7087688249e+01  2.5375570636e+01 -4.3695983896e+02  4.4140336825e+02  3.3000000000e-01 0. 9.
        3     1     7     0   105     0  2.0097753289e+01 -4.3596764712e+01 -4.0313495115e+02  4.0598354205e+02  5.0000000000e-01 0. 9.
       -2     1     7     0     0   105 -2.0174653233e+01 -9.7878202548e-02 -3.3839812502e+01  3.9398832767e+01  3.3000000000e-01 0. 9.
#pdf   21   21  2.252910e-03  3.603702e-01  1.798804e+02  2.272339e+01  5.581027e-02
</event>
<event>
    12  9999  1.000000e+00  2.343827e+02  7.902070e-03  1.037385e-01
       21    -1     0     0   101   102  0.0000000000e+00  0.0000000000e+00  9.6199358470e+01  9.6199358470e+01  0.0000000000e+00 0. 9.
       21    -1     0     0   103   101  0.0000000000e+00  0.0000000000e+00 -5.8215233261e+02  5.8215233261e+02  0.0000000000e+00 0. 9.
        6     2     1     2   103     0 -1.0881604553e+02  1.1790540418e+02 -2.8688807841e+02  3.6876338657e+02  1.6714978207e+02  7.546972e-14 9.
       -6     2     1     2     0   102  1.0881604553e+02 -1.1790540418e+02 -1.9906489574e+02  3.0958830451e+02  1.7457224715e+02  1.890173e-13 9.
       24     2     3     0     0     0 -7.6921833760e+01  1.3984203322e+02 -1.7531422742e+02  2.5056769857e+02  8.1094577299e+01  1.155727e-14 9.
        5     1     3     0   103     0 -3.1894211766e+01 -2.1936629039e+01 -1.1157385099e+02  1.1819568800e+02  4.8000000000e+00 0. 9.
      -24     2     4     0     0     0 -4.5096699324e+00 -3.1699110877e+01 -3.7509830787e+01  9.4187928927e+01  8.0244674569e+01  6.458949e-14 9.
       -5     1     4     0     0   102  1.1332571546e+02 -8.6206293308e+01 -1.6155506495e+02  2.1540037558e+02  4.8000000000e+00 0. 9.
       -3     1     5     0     0   104 -4.0101930884e+01  8.9566077104e+01 -4.8951695061e+01  1.0966661059e+02  5.0000000000e-01 0. 9.
        4     1     5     0   104     0 -3.6819902876e+01  5.0275956120e+01 -1.2636253235e+02  1.4090108798e+02  1.5000000000e+00 0. 9.
        1     1     7     0   105     0 -8.3106582973e-01  2.6981550387e+01 -1.7066426481e+01  3.1938480623e+01  3.3000000000e-01 0. 9.
       -2     1     7     0     0   105 -3.6786041026e+00 -5.8680661264e+01 -2.0443404306e+01  6.2249448304e+01  3.3000000000e-01 0. 9.
#pdf   21   21  1.479990e-02  8.956190e-02  2.316930e+02  5.941294e+00  9.345227e-01
</event>
<event>
    12  9999  1.000000e+00  1.919516e+02  7.884029e-03  1.062649e-01
       21    -1     0     0   101   102  0.0000000000e+00  0.0000000000e+00  2.1018591834e+02  2.1018591834e+02  0.0000000000e+00 0. 9.
       21    -1     0     0   103   101  0.0000000000e+00  0.0000000000e+00 -3.7713210873e+02  3.7713210873e+02  0.0000000000e+00 0. 9.
        6     2     1     2   103     0  2.1466226916e+01 -8.6111849437e+01 -2.9830591344e+02  3.5473833197e+02  1.7022578144e+02  8.887152e-14 9.
       -6     2     1     2     0   102 -2.1466226916e+01  8.6111849437e+01  1.3135972305e+02  2.3257969510e+02  1.7018192684e+02  1.104768e-13 9.
       24     2     3     0     0     0  3.6522206614e+01 -3.9893047272e+00 -2.3022961269e+02  2.4690411849e+02  8.1278429104e+01  1.973409e-14 9.
        5     1     3     0   103     0 -1.5055979698e+01 -8.2122544710e+01 -6.8076300747e+01  1.0783421348e+02  4.8000000000e+00 0. 9.
      -24     2     4     0     0     0  1.5518305267e+01 -5.2906449539e+00 -2.0213012938e+00  6.6640521738e+01  6.4560551084e+01  1.532078e-13 9.
       -5     1     4     0     0   102 -3.6984532183e+01  9.1402494391e+01  1.3338102434e+02  1.6593917336e+02  4.8000000000e+00 0. 9.
       -1     1     5     0     0   104  1.7951310897e+01 -4.2488437892e+01 -1.2997755122e+02  1.3791950420e+02  3.3000000000e-01 0. 9.
        2     1     5     0   104     0  1.8570895717e+01  3.8499133165e+01 -1.0025206147e+02  1.0898461429e+02  3.3000000000e-01 0. 9.
        1     1     7     0   105     0  5.9915500476e+00 -2.8822829833e+01 -1.9945880557e+01  3.5561232301e+01  3.3000000000e-01 0. 9.
       -2     1     7     0     0   105  9.5267552195e+00  2.3532184879e+01  1.7924579263e+01  3.1079289438e+01  3.3000000000e-01 0. 9.
#pdf   21   21  3.233630e-02  5.802032e-02  1.919321e+02  2.975926e+00  1.615894e+00
</event>
<event>
    12  9999  1.000000e+00  1.686933e+02  7.872405e-03  1.079863e-01
       21    -1     0     0   101   102  0.0000000000e+00  0.0000000000e+00  1.6425533647e+02  1.6425533647e+02  0.0000000000e+00 0. 9.
       21    -1     0     0   103   101  0.0000000000e+00  0.0000000000e+00 -6.8726476979e+02  6.8726476979e+02  0.0000000000e+00 0. 9.
        6     2     1     2   103     0 -2.4695698369e+01 -1.1741914263e+01 -6.2777958214e+02  6.4885726886e+02  1.6174301079e+02  7.244643e-14 9.
       -6     2     1     2     0   102  2.4695698369e+01  1.1741914263e+01  1.0477014882e+02  2.0266283741e+02  1.7131167944e+02  1.665166e-13 9.
       24     2     3     0     0     0 -1.3625954575e+01 -5.5341432232e+01 -5.5046832939e+02  5.5928312641e+02  8.0832500064e+01  6.161629e-13 9.
        5     1     3     0   103     0 -1.1069743794e+01  4.3599517969e+01 -7.7311252749e+01  8.9574142454e+01  4.8000000000e+00 0. 9.
      -24     2     4     0     0     0  4.9437699228e+01 -4.5209990744e+01  9.2621085826e+01  1.3920950162e+02  7.9451812029e+01  2.843436e-14 9.
       -5     1     4     0     0   102 -2.4742000858e+01  5.6951905007e+01  1.2149062991e+01  6.3453335783e+01  4.8000000000e+00 0. 9.
      -11     1     5     0     0     0  2.2248711813e+00 -3.0824366522e+01 -5.0018570502e+02  5.0113953259e+02  5.1100000000e-04 0. 9.
       12     1     5     0     0     0 -1.5850825756e+01 -2.4517065710e+01 -5.0282624369e+01  5.8143593814e+01  0.0000000000e+00 0. 9.
        1     1     7     0   104     0  4.9890378428e+01  1.4134714015e+00  2.1908674904e+01  5.4508225958e+01  3.3000000000e-01 0. 9.
       -2     1     7     0     0   104 -4.5267920011e-01 -4.6623462146e+01  7.0712410922e+01  8.4701275665e+01  3.3000000000e-01 0. 9.
#pdf   21   21  2.527005e-02  1.057330e-01  1.640383e+02  3.765059e+00  7.731136e-01
</event>
<event>
    12  9999  1.000000e+00  2.001094e+02  7.887782e-03  1.057281e-01
       21    -1     0     0   101   102  0.0000000000e+00  0.0000000000e+00  4.8513382500e+02  4.8513382500e+02  0.0000000000e+00 0. 9.
       21    -1     0     0   102   103  0.0000000000e+00  0.0000000000e+00 -1.0243180939e+02  1.0243180939e+02  0.0000000000e+00 0. 9.
        6     2     1     2   101     0  9.6039467661e+01  3.4242848355e+01  3.2175720590e+02  3.7957041897e+02  1.7363712561e+02  1.694959e-13 9.
       -6     2     1     2     0   103 -9.6039467661e+01 -3.4242848355e+01  6.0944809700e+01  2.0799521542e+02  1.7073836065e+02  4.232551e-14 9.
       24     2     3     0     0     0  7.1928255753e+01  6.2561554431e+01  3.1670954078e+02  3.4173104031e+02  8.5950850061e+01  1.871797e-13 9.
        5     1     3     0   101     0  2.4111211908e+01 -2.8318706076e+01  5.0476651255e+00  3.7839378651e+01  4.8000000000e+00 0. 9.
      -24     2     4     0     0     0 -6.1910777897e+01  1.2936895202e+01 -2.4249135795e+01  1.0469108184e+02  7.9824146422e+01  1.694362e-14 9.
       -5     1     4     0     0   103 -3.4128689764e+01 -4.7179743557e+01  8.5193945496e+01  1.0330413359e+02  4.8000000000e+00 0. 9.
      -15     1     5     0     0     0 -6.1239779032e+00 -1.3772208118e+01  7.4844058620e+01  7.6367316450e+01  1.7768200000e+00  1.834804e-01 9.
       16     1     5     0     0     0  7.8052233656e+01  7.6333762549e+01  2.4186548216e+02  2.6536372386e+02  0.0000000000e+00 0. 9.
        1     1     7     0   104     0  5.8988809945e+00  4.9611307709e+00  2.1273385394e+01  2.2629083977e+01  3.3000000000e-01 0. 9.
       -2     1     7     0     0   104 -6.7809658891e+01  7.9757644308e+00 -4.5522521190e+01  8.2061997859e+01  3.3000000000e-01 0. 9.
#pdf   21   21  7.463597e-02  1.575874e-02  1.988661e+02  1.196395e+00  5.648411e+00
</event>
<event>
    12  9999  1.000000e+00  2.421814e+02  7.905035e-03  1.033361e-01
       21    -1     0     0   101   102  0.0000000000e+00  0.0000000000e+00  7.6043802076e+01  7.6043802076e+01  0.0000000000e+00 0. 9.
       21    -1     0     0   103   101  0.0000000000e+00  0.0000000000e+00 -1.1102398231e+03  1.1102398231e+03  0.0000000000e+00 0. 9.
        6     2     1     2   103     0  1.6371112572e+02 -5.1833279044e+01 -8.4568870857e+02  8.7984288290e+02  1.7159861676e+02  6.687848e-14 9.
       -6     2     1     2     0   102 -1.6371112572e+02  5.1833279044e+01 -1.8850731248e+02  3.0644074230e+02  1.6994969899e+02  3.780830e-14 9.
       24     2     3     0     0     0  1.7256838473e+02 -6.5449804972e+01 -8.3708773247e+02  8.6084610408e+02  7.9225113921e+01  1.719821e-13 9.
        5     1     3     0   103     0 -8.8572590101e+00  1.3616525928e+01 -8.6009761019e+00  1.8996778817e+01  4.8000000000e+00 0. 9.
      -24     2     4     0     0     0 -1.7032599730e+02  7.4477466477e+01 -1.2690652617e+02  2.4030291180e+02  8.4156905038e+01  8.035585e-14 9.
       -5     1     4     0     0   102  6.6148715804e+00 -2.2644187434e+01 -6.1600786303e+01  6.6137830503e+01  4.8000000000e+00 0. 9.
       -3     1     5     0     0   104  2.7509977029e+01  1.1548680306e+01 -6.5555268768e+01  7.2027176234e+01  5.0000000000e-01 0. 9.
        4     1     5     0   104     0  1.4505840770e+02 -7.6998485278e+01 -7.7153246370e+02  7.8881892784e+02  1.5000000000e+00 0. 9.
        3     1     7     0   105     0 -3.1315669830e+01  1.1793965876e+01  1.0456022445e+01  3.5062048049e+01  5.0000000000e-01 0. 9.
       -4     1     7     0     0   105 -1.3901032747e+02  6.2683500601e+01 -1.3736254862e+02  2.0524086375e+02  1.5000000000e+00 0. 9.
#pdf   21   21  1.169905e-02  1.708061e-01  2.416007e+02  7.187671e+00  3.474359e-01
</event>
<event>
    12  9999  1.000000e+00  2.235969e+02  7.897807e-03  1.043234e-01
       21    -1     0     0   101   102  0.0000000000e+00  0.0000000000e+00  1.0188188764e+02  1.0188188764e+02  0.0000000000e+00 0. 9.
       21    -1     0     0   102   103  0.0000000000e+00  0.0000000000e+00 -1.1051810879e+03  1.1051810879e+03  0.0000000000e+00 0. 9.
        6     2     1     2   101     0  7.0194006134e+01 -2.6849680366e+01 -2.1400202109e+01  1.9012585551e+02  1.7332561394e+02  2.919005e-14 9.
       -6     2     1     2     0   103 -7.0194006134e+01  2.6849680366e+01 -9.8189899818e+02  1.0169371201e+03  2.5374664473e+02  5.128851e-14 9.
       24     2     3     0     0     0 -2.0989485398e+01 -3.8192688581e+01  1.4146215742e+01  9.1486711221e+01  7.9186254817e+01  8.342079e-14 9.
        5     1     3     0   101     0  9.1183491532e+01  1.1343008216e+01 -3.5546417852e+01  9.8639144286e+01  4.8000000000e+00 0. 9.
      -24     2     4     0     0     0 -5.8163646812e+01 -4.3964218603e+01 -8.9967958413e+02  9.0765578644e+02  9.5392925469e+01  5.544696e-14 9.
       -5     1     4     0     0   103 -1.2030359323e+01  7.0813898969e+01 -8.2219414049e+01  1.0928133363e+02  4.8000000000e+00 0. 9.
      -13     1     5     0     0     0 -3.9371547823e+01 -2.5371434036e+01 -1.9765687012e+01  5.0838194206e+01  1.0566000000e-01  9.354264e+05 9.
       14     1     5     0     0     0  1.8382062426e+01 -1.2821254546e+01  3.3911902754e+01  4.0648517015e+01  0.0000000000e+00 0. 9.
        1     1     7     0   104     0 -2.1737530131e+01 -4.3702197340e+01 -8.0068382607e+02  8.0217024408e+02  3.3000000000e-01 0. 9.
       -2     1     7     0     0   104 -3.6426116681e+01 -2.6202126370e-01 -9.8995758060e+01  1.0548554235e+02  3.3000000000e-01 0. 9.
#pdf   21   21  1.567414e-02  1.700279e-01  1.889176e+02  5.675769e+00  3.637636e-01
</event>
<event>
    12  9999  1.000000e+00  1.986568e+02  7.887125e-03  1.058217e-01
       21    -1     0     0   101   102  0.0000000000e+00  0.0000000000e+00  1.7592925103e+02  1.7592925103e+02  0.0000000000e+00 0. 9.
       21    -1     0     0   102   103  0.0000000000e+00  0.0000000000e+00 -5.0460120950e+02  5.0460120950e+02  0.0000000000e+00 0. 9.
        6     2     1     2   101     0  5.8852740437e+01  7.8220994372e+01  8.9891028797e+01  2.1645924367e+02  1.7085677656e+02  2.107030e-13 9.
       -6     2     1     2     0   103 -5.8852740437e+01 -7.8220994372e+01 -4.1856298727e+02  4.6407121686e+02  1.7488553682e+02  6.360648e-15 9.
       24     2     3     0     0     0  6.7045988361e+01  1.1432687107e+02  9.0441873708e+01  1.7912150038e+02  7.9617720237e+01  2.493471e-14 9.
        5     1     3     0   101     0 -8.1932479233e+00 -3.6105876699e+01 -5.5084491124e-01  3.7337743289e+01  4.8000000000e+00 0. 9.
      -24     2     4     0     0     0 -2.7347014651e+01  2.7243606219e+01 -1.9529569350e+02  2.1509989883e+02  8.1470763380e+01  7.336814e-14 9.
       -5     1     4     0     0   103 -3.1505725787e+01 -1.0546460059e+02 -2.2326729376e+02  2.4897131803e+02  4.8000000000e+00 0. 9.
       -1     1     5     0     0   104  5.0435604732e+01  1.2176896015e+02  6.2736572825e+01  1.4597060098e+02  3.3000000000e-01 0. 9.
        2     1     5     0   104     0  1.6610383629e+01 -7.4420890799e+00  2.7705300883e+01  3.3150899403e+01  3.3000000000e-01 0. 9.
        3     1     7     0   105     0 -3.9958238496e+01  1.7395183552e+01 -1.9415681049e+02  1.9898836723e+02  5.0000000000e-01 0. 9.
       -4     1     7     0     0   105  1.2611223845e+01  9.8484226672e+00 -1.1388830144e+00  1.6111531598e+01  1.5000000000e+00 0. 9.
#pdf   21   21  2.706604e-02  7.763096e-02  1.969117e+02  3.518389e+00  1.140385e+00
</event>
<event>
    12  9999  1.000000e+00  1.809304e+02  7.878703e-03  1.070370e-01
       21    -1     0     0   101   102  0.0000000000e+00  0.0000000000e+00  6.5098774606e+02  6.5098774606e+02  0.0000000000e+00 0. 9.
       21    -1     0     0   103   101  0.0000000000e+00  0.0000000000e+00 -6.9683160961e+01  6.9683160961e+01  0.0000000000e+00 0. 9.
        6     2     1     2   103     0 -2.5933316976e+01  5.3003751579e+01  1.0058564428e+02  2.0704408501e+02  1.7107848109e+02  1.966473e-13 9.
       -6     2     1     2     0   102  2.5933316976e+01 -5.3003751579e+01  4.8071894082e+02  5.1362682201e+02  1.7099671813e+02  3.220505e-13 9.
       24     2     3     0     0     0 -7.2246068654e+01  1.7098712490e+01  1.0008448748e+02  1.4824498674e+02  8.0298263079e+01  1.093808e-13 9.
        5     1     3     0   103     0  4.6312751678e+01  3.5905039089e+01  5.0115680013e-01  5.8799098277e+01  4.8000000000e+00 0. 9.
      -24     2     4     0     0     0 -3.2618741558e+00  3.3029410248e+01  1.9322861447e+02  2.1208446700e+02  8.0876089966e+01  1.197688e-14 9.
       -5     1     4     0     0   102  2.9195191132e+01 -8.6033161828e+01  2.8749032635e+02  3.0154235501e+02  4.8000000000e+00 0. 9.
       -3     1     5     0     0   104 -1.6109448446e+00  6.8294811649e+00  7.0686574955e+01  7.1035757440e+01  5.0000000000e-01 0. 9.
        4     1     5     0   104     0 -7.0635123810e+01  1.0269231325e+01  2.9397912524e+01  7.7209229295e+01  1.5000000000e+00 0. 9.
       11     1     7     0     0     0  3.7430087720e+01  5.1695175055e+00  9.2914595364e+01  1.0030382550e+02  5.1100000000e-04 0. 9.
      -12     1     7     0     0     0 -4.0691961876e+01  2.7859892743e+01  1.0031401911e+02  1.1178064150e+02  0.0000000000e+00 0. 9.
#pdf   21   21  1.001520e-01  1.072049e-02  1.808917e+02  8.246325e-01  7.685757e+00
</event>
<event>
    12  9999  1.000000e+00  2.252224e+02  7.898462e-03  1.042331e-01
       21    -1     0     0   101   102  0.0000000000e+00  0.0000000000e+00  7.0615913516e+01  7.0615913516e+01  0.0000000000e+00 0. 9.
       21    -1     0     0   103   101  0.0000000000e+00  0.0000000000e+00 -1.4829215803e+03  1.4829215803e+03  0.0000000000e+00 0. 9.
        6     2     1     2   103     0  4.7167089454e+01  1.3861467090e+02 -1.2634634663e+03  1.2833283154e+03  1.7074212474e+02  2.728120e-14 9.
       -6     2     1     2     0   102 -4.7167089454e+01 -1.3861467090e+02 -1.4884220046e+02  2.7020917838e+02  1.7152328741e+02  6.830934e-13 9.
       24     2     3     0     0     0  4.8482226785e+01  1.9430696525e+01 -7.5279811764e+02  7.5891560804e+02  8.0745377122e+01  3.917710e-14 9.
        5     1     3     0   103     0 -1.3151373309e+00  1.1918397437e+02 -5.1066534866e+02  5.2441270737e+02  4.8000000000e+00 0. 9.
      -24     2     4     0     0     0 -6.4366754784e+01 -3.0505219274e+01 -1.1398646864e+02  1.5522464003e+02  7.7641009230e+01  1.579674e-13 9.
       -5     1     4     0     0   102  1.7199665330e+01 -1.0810945162e+02 -3.4855731819e+01  1.1498453835e+02  4.8000000000e+00 0. 9.
       -1     1     5     0     0   104  3.1158467079e+01  5.1032031239e+01 -4.9962214978e+02  5.0318736047e+02  3.3000000000e-01 0. 9.
        2     1     5     0   104     0  1.7323759705e+01 -3.1601334714e+01 -2.5317596786e+02  2.5572824757e+02  3.3000000000e-01 0. 9.
        3     1     7     0   105     0  3.2099712358e+00  4.2694415509e+00  9.0966974092e+00  1.0560868821e+01  5.0000000000e-01 0. 9.
       -4     1     7     0     0   105 -6.7576726019e+01 -3.4774660825e+01 -1.2308316605e+02  1.4466377121e+02  1.5000000000e+00 0. 9.
#pdf   21   21  1.086399e-02  2.281418e-01  2.249258e+02  7.618891e+00  1.986249e-01
</event>
<event>
    12  9999  1.000000e+00  2.120344e+02  7.893007e-03  1.049907e-01
       21    -1     0     0   101   102  0.0000000000e+00  0.0000000000e+00  8.3180953271e+02  8.3180953271e+02  0.0000000000e+00 0. 9.
       21    -1     0     0   103   101  0.0000000000e+00  0.0000000000e+00 -2.6449560961e+02  2.6449560961e+02  0.0000000000e+00 0. 9.
        6     2     1     2   103     0 -5.5698349900e+01  1.1182799462e+02 -2.0518248608e+02  2.9534245076e+02  1.7181240952e+02  6.144069e-14 9.
       -6     2     1     2     0   102  5.5698349900e+01 -1.1182799462e+02  7.7249640918e+02  8.0096269156e+02  1.7082951886e+02  1.484855e-13 9.
       24     2     3     0     0     0 -5.2772677687e+01  2.1979680728e+01 -4.0389432126e+01  1.0756313960e+02  8.1672889617e+01  3.039809e-14 9.
        5     1     3     0   103     0 -2.9256722137e+00  8.9848313893e+01 -1.6479305396e+02  1.8777931116e+02  4.8000000000e+00 0. 9.
      -24     2     4     0     0     0  6.9944979226e+01  4.7975275015e-01  3.2434136838e+02  3.3870521227e+02  6.8054149720e+01  1.072971e-13 9.
       -5     1     4     0     0   102 -1.4246629325e+01 -1.1230774737e+02  4.4815504080e+02  4.6225747929e+02  4.8000000000e+00 0. 9.
       -3     1     5     0     0   104 -6.4621298886e+01 -9.2431308672e+00 -3.3719335536e+01  7.3475106852e+01  5.0000000000e-01 0. 9.
        4     1     5     0   104     0  1.1848621200e+01  3.1222811595e+01 -6.6700965902e+00  3.4088032750e+01  1.5000000000e+00 0. 9.
        3     1     7     0   105     0  5.0761350939e+01  2.7200666241e+01  2.6141790254e+02  2.6768668395e+02  5.0000000000e-01 0. 9.
       -4     1     7     0     0   105  1.9183628286e+01 -2.6720913491e+01  6.2923465844e+01  7.1018528327e+01  1.5000000000e+00 0. 9.
#pdf   21   21  1.279707e-01  4.069163e-02  2.116377e+02  5.690272e-01  2.355800e+00
</event>
<event>
    12  9999  1.000000e+00  2.181041e+02  7.895558e-03  1.046350e-01
       21    -1     0     0   101   102  0.0000000000e+00  0.0000000000e+00  1.7687945038e+02  1.7687945038e+02  0.0000000000e+00 0. 9.
       21    -1     0     0   102   103  0.0000000000e+00  0.0000000000e+00 -3.9517557666e+02  3.9517557666e+02  0.0000000000e+00 0. 9.
        6     2     1     2   101     0  1.3232797870e+02 -3.3328757792e+01  5.2432199184e+01  2.2455172437e+02  1.7044894063e+02  2.525590e-14 9.
       -6     2     1     2     0   103 -1.3232797870e+02  3.3328757792e+01 -2.7072832546e+02  3.4750330267e+02  1.6983291529e+02  5.706817e-15 9.
       24     2     3     0     0     0  6.9561389687e+01  7.9515457721e+00 -3.2519445540e+01  1.1104608530e+02  7.9822958524e+01  7.373279e-15 9.
        5     1     3     0   101     0  6.2766589016e+01 -4.1280303564e+01  8.4951644724e+01  1.1350563907e+02  4.8000000000e+00 0. 9.
      -24     2     4     0     0     0 -6.7950776909e+01  8.5376925133e+01 -1.6934622587e+02  2.1652694621e+02  7.9367794410e+01  3.235806e-13 9.
       -5     1     4     0     0   103 -6.4377201794e+01 -5.2048167341e+01 -1.0138209959e+02  1.3097635646e+02  4.8000000000e+00 0. 9.
       -3     1     5     0     0   104  8.1309912420e+01 -1.0586955115e+01 -1.6021928704e+01  8.3548415160e+01  5.0000000000e-01 0. 9.
        4     1     5     0   104     0 -1.1748522732e+01  1.8538500887e+01 -1.6497516837e+01  2.7497670143e+01  1.5000000000e+00 0. 9.
        1     1     7     0   105     0 -1.6651638828e+01  1.7755564647e+01 -1.1073243072e+02  1.1337688152e+02  3.3000000000e-01 0. 9.
       -2     1     7     0     0   105 -5.1299138081e+01  6.7621360486e+01 -5.8613795154e+01  1.0315006468e+02  3.3000000000e-01 0. 9.
#pdf   21   21  2.721222e-02  6.079624e-02  2.178640e+02  3.488708e+00  1.517389e+00
</event>
<event>
    12  9999  1.000000e+00  2.093343e+02  7.891850e-03  1.051531e-01
       21    -1     0     0   101   102  0.0000000000e+00  0.0000000000e+00  1.5841658830e+02  1.5841658830e+02  0.0000000000e+00 0. 9.
       21    -1     0     0   103   101  0.0000000000e+00  0.0000000000e+00 -2.7954301086e+02  2.7954301086e+02  0.0000000000e+00 0. 9.
        6     2     1     2   103     0 -7.3016109219e+01 -9.2124314366e+01 -3.7625043378e+01  2.1039032173e+02  1.7038251697e+02  3.952088e-13 9.
       -6     2     1     2     0   102  7.3016109219e+01  9.2124314366e+01 -8.3501379186e+01  2.2756927742e+02  1.7605980290e+02  1.491154e-13 9.
       24     2     3     0     0     0 -6.5921148401e+01  1.1014361255e+00 -4.8922651665e+01  1.1609262836e+02  8.2080823244e+01  6.471144e-14 9.
        5     1     3     0   103     0 -7.0949608178e+00 -9.3225750491e+01  1.1297608287e+01  9.4297693379e+01  4.8000000000e+00 0. 9.
      -24     2     4     0     0     0  3.7453194668e+01  9.2218940643e+00 -1.0206391345e+02  1.3534596225e+02  8.0085591388e+01  9.113390e-14 9.
       -5     1     4     0     0   102  3.5562914551e+01  8.2902420301e+01  1.8562534260e+01  9.2223315172e+01  4.8000000000e+00 0. 9.
      -15     1     5     0     0     0  8.1628824248e+00  1.9911954959e+01  5.4752896478e+00  2.2276770094e+01  1.7768200000e+00  1.798934e-02 9.
       16     1     5     0     0     0 -7.4084030826e+01 -1.8810518834e+01 -5.4397941313e+01  9.3815858261e+01  0.0000000000e+00 0. 9.
       15     1     7     0     0     0  5.5203237325e+01 -4.1979736225e+00 -3.7076993318e+01  6.6654939176e+01  1.7768200000e+00  1.117821e-02 9.
      -16     1     7     0     0     0 -1.7750042657e+01  1.3419867687e+01 -6.4986920128e+01  6.8691023072e+01  0.0000000000e+00 0. 9.
#pdf   21   21  2.437178e-02  4.300662e-02  2.069987e+02  3.867357e+00  2.227146e+00
</event>
<event>
    12  9999  1.000000e+00  2.716301e+02  7.915446e-03  1.019496e-01
       21    -1     0     0   101   102  0.0000000000e+00  0.0000000000e+00  1.5214479426e+02  1.5214479426e+02  0.0000000000e+00 0. 9.
       21    -1     0     0   102   103  0.0000000000e+00  0.0000000000e+00 -4.8549229220e+02  4.8549229220e+02  0.0000000000e+00 0. 9.
        6     2     1     2   101     0  1.8290061555e+02 -1.0425563315e+02 -1.5637109933e+02  3.1387298465e+02  1.7246001732e+02  5.450213e-14 9.
       -6     2     1     2     0   103 -1.8290061555e+02  1.0425563315e+02 -1.7697639861e+02  3.2376410181e+02  1.7082352221e+02  7.625219e-14 9.
       24     2     3     0     0     0  1.8403739347e+02 -1.3140632041e+02 -1.2023771101e+02  2.6840746106e+02  8.0299905148e+01  1.058302e-13 9.
        5     1     3     0   101     0 -1.1367779210e+00  2.7150687263e+01 -3.6133388327e+01  4.5465523585e+01  4.8000000000e+00 0. 9.
      -24     2     4     0     0     0 -1.7272129990e+02  1.3767549224e+02 -1.6162349373e+02  2.8530298979e+02  8.0550938281e+01  1.083849e-13 9.
       -5     1     4     0     0   103 -1.0179315654e+01 -3.3419859094e+01 -1.5352904884e+01  3.8461112015e+01  4.8000000000e+00 0. 9.
      -11     1     5     0     0     0  6.6105347545e+01 -3.9177568732e+01 -7.3199546144e-01  7.6846175464e+01  5.1100000000e-04 0. 9.
       12     1     5     0     0     0  1.1793204593e+02 -9.2228751678e+01 -1.1950571554e+02  1.9156128560e+02  0.0000000000e+00 0. 9.
        3     1     7     0   104     0 -6.7253837497e+01  9.4719635839e+01 -1.1098312265e+02  1.6066235273e+02  5.0000000000e-01 0. 9.
       -4     1     7     0     0   104 -1.0546746240e+02  4.2955856402e+01 -5.0640371074e+01  1.2464063706e+02  1.5000000000e+00 0. 9.
#pdf   21   21  2.340689e-02  7.469112e-02  2.711135e+02  3.980300e+00  1.163636e+00
</event>
<event>
    12  9999  1.000000e+00  2.003047e+02  7.887870e-03  1.057156e-01
       21    -1     0     0   101   102  0.0000000000e+00  0.0000000000e+00  7.8417396328e+01  7.8417396328e+01  0.0000000000e+00 0. 9.
       21    -1     0     0   103   101  0.0000000000e+00  0.0000000000e+00 -1.0675500339e+03  1.0675500339e+03  0.0000000000e+00 0. 9.
        6     2     1     2   103     0 -7.1991207853e+01 -8.8260419812e+01 -9.1374415984e+02  9.3653140467e+02  1.7085094842e+02  1.730862e-14 9.
       -6     2     1     2     0   102  7.1991207853e+01  8.8260419812e+01 -7.5388477709e+01  2.0943602554e+02  1.5876835487e+02  3.287134e-13 9.
       24     2     3     0     0     0 -3.9063767987e+01 -6.3918114446e+01 -2.7078069038e+02  2.9224743996e+02  8.0466642494e+01  1.679010e-14 9.
        5     1     3     0   103     0 -3.2927439866e+01 -2.4342305366e+01 -6.4296346946e+02  6.4428396471e+02  4.8000000000e+00 0. 9.
      -24     2     4     0     0     0  9.4947815326e+01  5.0595388026e+01 -2.0821231301e+01  1.3910619668e+02  8.5685642656e+01  1.005745e-14 9.
       -5     1     4     0     0   102 -2.2956607473e+01  3.7665031787e+01 -5.4567246408e+01  7.0329828855e+01  4.8000000000e+00 0. 9.
      -13     1     5     0     0     0  6.0898239247e+00 -6.3794588756e+00  2.6450971036e+00  9.2082112108e+00  1.0566000000e-01  2.732486e+06 9.
       14     1     5     0     0     0 -4.5153591911e+01 -5.7538655571e+01 -2.7342578748e+02  2.8303922875e+02  0.0000000000e+00 0. 9.
       13     1     7     0     0     0  1.8583445928e+01  2.6942163626e+01  2.9981441975e+01  4.4386063920e+01  1.0566000000e-01  2.433984e+05 9.
      -14     1     7     0     0     0  7.6364369398e+01  2.3653224400e+01 -5.0802673276e+01  9.4720132760e+01  0.0000000000e+00 0. 9.
#pdf   21   21  1.206421e-02  1.642385e-01  1.953971e+02  7.012867e+00  3.843712e-01
</event>
<event>
    12  9999  1.000000e+00  2.404299e+02  7.904377e-03  1.034250e-01
       21    -1     0     0   101   102  0.0000000000e+00  0.0000000000e+00  2.2152507922e+02  2.2152507922e+02  0.0000000000e+00 0. 9.
       21    -1     0     0   103   101  0.0000000000e+00  0.0000000000e+00 -2.6143146156e+02  2.6143146156e+02  0.0000000000e+00 0. 9.
        6     2     1     2   103     0  4.8037156236e+01  1.6183306136e+02 -3.0353316653e+01  2.4258078590e+02  1.7154184833e+02  1.824608e-14 9.
       -6     2     1     2     0   102 -4.8037156236e+01 -1.6183306136e+02 -9.5530656912e+00  2.4037575489e+02  1.7085588765e+02  1.328403e-13 9.
       24     2     3     0     0     0  1.5230968462e+01  6.1481943381e+01  4.6291892380e+01  1.1202765149e+02  7.9970267202e+01  8.952680e-14 9.
        5     1     3     0   103     0  3.2806187774e+01  1.0035111798e+02 -7.6645209033e+01  1.3055313441e+02  4.8000000000e+00 0. 9.
      -24     2     4     0     0     0 -9.2589490565e+01 -1.3691226359e+02  1.2225999528e+01  1.8466826583e+02  8.1456194689e+01  3.496795e-14 9.
       -5     1     4     0     0   102  4.4552334329e+01 -2.4920797767e+01 -2.1779065220e+01  5.5707489060e+01  4.8000000000e+00 0. 9.
       -1     1     5     0     0   104 -2.4220356690e+01  4.7023683351e+01  5.0255662136e+00  5.3133959855e+01  3.3000000000e-01 0. 9.
        2     1     5     0   104     0  3.9451325151e+01  1.4458260030e+01  4.1266326167e+01  5.8893691637e+01  3.3000000000e-01 0. 9.
        1     1     7     0   105     0 -3.1012885349e+01 -8.8049566546e+01 -2.6496400111e+01  9.7039648317e+01  3.3000000000e-01 0. 9.
       -2     1     7     0     0   105 -6.1576605216e+01 -4.8862697048e+01  3.8722399639e+01  8.7628617509e+01  3.3000000000e-01 0. 9.
#pdf   21   21  3.408078e-02  4.022022e-02  2.401858e+02  2.799146e+00  2.367944e+00
</event>
<event>
    12  9999  1.000000e+00  2.856427e+02  7.920018e-03  1.013537e-01
       21    -1     0     0   101   102  0.0000000000e+00  0.0000000000e+00  9.7951819416e+02  9.7951819416e+02  0.0000000000e+00 0. 9.
       21    -1     0     0   103   101  0.0000000000e+00  0.0000000000e+00 -9.8057069468e+01  9.8057069468e+01  0.0000000000e+00 0. 9.
        6     2     1     2   103     0 -2.1753152496e+02  7.5509756512e+01  2.3331900486e+02  3.6977391018e+02  1.7109441529e+02  7.508999e-14 9.
       -6     2     1     2     0   102  2.1753152496e+02 -7.5509756512e+01  6.4814211983e+02  7.0780135344e+02  1.6695167192e+02  1.780675e-13 9.
       24     2     3     0     0     0 -1.1991636139e+02  5.1981589340e+01  5.4472379225e+01  1.6461190027e+02  8.3951285006e+01  2.560835e-13 9.
        5     1     3     0   103     0 -9.7615163573e+01  2.3528167172e+01  1.7884662564e+02  2.0516200991e+02  4.8000000000e+00 0. 9.
      -24     2     4     0     0     0  1.5610701037e+02 -9.8914862277e+01  3.5792552236e+02  4.1019509777e+02  7.7432486793e+01  1.079218e-13 9.
       -5     1     4     0     0   102  6.1424514591e+01  2.3405105766e+01  2.9021659747e+02  2.9760625567e+02  4.8000000000e+00 0. 9.
       -3     1     5     0     0   104 -3.3929671597e+01  5.9702919962e+01  2.9386781551e+01  7.4696011919e+01  5.0000000000e-01 0. 9.
        4     1     5     0   104     0 -8.5986689791e+01 -7.7213306220e+00  2.5085597673e+01  8.9915888354e+01  1.5000000000e+00 0. 9.
       15     1     7     0     0     0  1.0205960757e+02 -8.6001054461e+01  3.0724898604e+02  3.3498871828e+02  1.7768200000e+00  2.393625e-02 9.
      -16     1     7     0     0     0  5.4047402804e+01 -1.2913807816e+01  5.0676536325e+01  7.5206379490e+01  0.0000000000e+00 0. 9.
#pdf   21   21  1.506951e-01  1.508570e-02  2.844197e+02  4.215404e-01  5.835954e+00
</event>
<event>
    12  9999  1.000000e+00  2.246745e+02  7.898242e-03  1.042634e-01
       21    -1     0     0   101   102  0.0000000000e+00  0.0000000000e+00  3.1022372625e+02  3.1022372625e+02  0.0000000000e+00 0. 9.
       21    -1     0     0   103   101  0.0000000000e+00  0.0000000000e+00 -2.0904609916e+02  2.0904609916e+02  0.0000000000e+00 0. 9.
        6     2     1     2   103     0  1.4360273695e+02 -1.9043423430e+01 -7.1651414135e+01  2.3575450278e+02  1.7164458161e+02  8.464371e-14 9.
       -6     2     1     2     0   102 -1.4360273695e+02  1.9043423430e+01  1.7282904122e+02  2.8351532263e+02  1.7183324080e+02  4.722362e-15 9.
       24     2     3     0     0     0  5.1216577406e+01 -9.2797705083e+00 -9.9774095697e+01  1.3857190860e+02  8.0858219977e+01  1.107359e-13 9.
        5     1     3     0   103     0  9.2386159543e+01 -9.7636529219e+00  2.8122681562e+01  9.7182594181e+01  4.8000000000e+00 0. 9.
      -24     2     4     0     0     0 -7.0897357478e+01 -5.2345514066e+01  6.4139162198e+01  1.3445499121e+02  7.8726262418e+01  2.572995e-13 9.
       -5     1     4     0     0   102 -7.2705379471e+01  7.1388937496e+01  1.0868987902e+02  1.4906033142e+02  4.8000000000e+00 0. 9.
      -13     1     5     0     0     0  6.1829202431e+01 -4.9303015624e-01 -3.2404798990e+01  6.9808133578e+01  1.0566000000e-01  1.235862e+06 9.
       14     1     5     0     0     0 -1.0612625025e+01 -8.7867403521e+00 -6.7369296707e+01  6.8763775018e+01  0.0000000000e+00 0. 9.
        1     1     7     0   104     0 -2.2468260703e+00  1.6879944677e+01  2.3039828296e+01  2.8651759939e+01  3.3000000000e-01 0. 9.
       -2     1     7     0     0   104 -6.8650531407e+01 -6.9225458743e+01  4.1099333903e+01  1.0580323127e+02  3.3000000000e-01 0. 9.
#pdf   21   21  4.772673e-02  3.216094e-02  2.246024e+02  1.984342e+00  2.971793e+00
</event>
<event>
    12  9999  1.000000e+00  1.770882e+02  7.876772e-03  1.073200e-01
       21    -1     0     0   101   102  0.0000000000e+00  0.0000000000e+00  4.6368400421e+01  4.6368400421e+01  0.0000000000e+00 0. 9.
       21    -1     0     0   102   103  0.0000000000e+00  0.0000000000e+00 -6.9066203435e+02  6.9066203435e+02  0.0000000000e+00 0. 9.
        6     2     1     2   101     0  3.1936458950e+01  4.1470137001e+01 -2.6618048247e+02  3.1878380618e+02  1.6742567355e+02  1.661621e-13 9.
       -6     2     1     2     0   103 -3.1936458950e+01 -4.1470137001e+01 -3.7811315146e+02  4.1824662859e+02  1.7094144420e+02  8.050357e-14 9.
       24     2     3     0     0     0  6.6863526938e+01  4.9121194407e+01 -2.5658092383e+02  2.8145244827e+02  8.0610713864e+01  1.775367e-13 9.
        5     1     3     0   101     0 -3.4927067988e+01 -7.6510574057e+00 -9.5995586426e+00  3.7331357915e+01  4.8000000000e+00 0. 9.
      -24     2     4     0     0     0  3.5328079993e+01 -5.8885526244e+01 -2.6742773419e+02  2.8747157141e+02  8.0042069703e+01  1.245554e-13 9.
       -5     1     4     0     0   103 -6.7264538943e+01  1.7415389243e+01 -1.1068541727e+02  1.3077505717e+02  4.8000000000e+00 0. 9.
      -15     1     5     0     0     0  6.8576017016e+01  2.7810564334e+01 -1.0556725111e+02  1.2893292517e+02  1.7768200000e+00  1.404423e-02 9.
       16     1     5     0     0     0 -1.7124900781e+00  2.1310630072e+01 -1.5101367272e+02  1.5251952310e+02  0.0000000000e+00 0. 9.
       11     1     7     0     0     0  1.7372359354e+01  3.0911415255e+00 -6.6940789954e+00  1.8872326812e+01  5.1100000000e-04 0. 9.
      -12     1     7     0     0     0  1.7955720639e+01 -6.1976667770e+01 -2.6073365519e+02  2.6859924460e+02  0.0000000000e+00 0. 9.
#pdf   21   21  7.133600e-03  1.062557e-01  1.754168e+02  1.041643e+01  7.624516e-01
</event>
<event>
    12  9999  1.000000e+00  1.797556e+02  7.878117e-03  1.071227e-01
       21    -1     0     0   101   102  0.0000000000e+00  0.0000000000e+00  7.1013050904e+01  7.1013050904e+01  0.0000000000e+00 0. 9.
       21    -1     0     0   102   103  0.0000000000e+00  0.0000000000e+00 -4.5595112118e+02  4.5595112118e+02  0.0000000000e+00 0. 9.
        6     2     1     2   101     0 -4.6361996848e+01 -2.7643718271e+01 -2.0483695509e+02  2.7280446186e+02  1.7190254894e+02  3.877709e-14 9.
       -6     2     1     2     0   103  4.6361996848e+01  2.7643718271e+01 -1.8010111519e+02  2.5415971023e+02  1.7101794262e+02  3.984283e-14 9.
       24     2     3     0     0     0 -6.1440501715e+01  1.6717916125e+01 -1.9647859432e+02  2.2496913904e+02  8.9178761606e+01  1.448217e-13 9.
        5     1     3     0   101     0  1.5078504868e+01 -4.4361634396e+01 -8.3583607656e+00  4.7835322827e+01  4.8000000000e+00 0. 9.
      -24     2     4     0     0     0  8.4978560206e+00 -4.7307115638e+01 -1.1441847759e+02  1.4744246913e+02  7.9608523051e+01  1.224387e-14 9.
       -5     1     4     0     0   103  3.7864140827e+01  7.4950833909e+01 -6.5682637599e+01  1.0671724109e+02  4.8000000000e+00 0. 9.
       -3     1     5     0     0   104 -6.4089579405e+01 -8.4648021169e+00 -1.8705117313e+02  1.9790785339e+02  5.0000000000e-01 0. 9.
        4     1     5     0   104     0  2.6490776900e+00  2.5182718241e+01 -9.4274211920e+00  2.7061285649e+01  1.5000000000e+00 0. 9.
       11     1     7     0     0     0 -1.8868507568e+01  1.2760396588e+01 -5.1227755121e+01  5.6063635219e+01  5.1100000000e-04 0. 9.
      -12     1     7     0     0     0  2.7366363589e+01 -6.0067512226e+01 -6.3190722473e+01  9.1378833915e+01  0.0000000000e+00 0. 9.
#pdf   21   21  1.092508e-02  7.014633e-02  1.793342e+02  7.573415e+00  1.301238e+00
</event>
<event>
    12  9999  1.000000e+00  2.202277e+02  7.896434e-03  1.045134e-01
       21    -1     0     0   101   102  0.0000000000e+00  0.0000000000e+00  6.6053504039e+01  6.6053504039e+01  0.0000000000e+00 0. 9.
       21    -1     0     0   102   103  0.0000000000e+00  0.0000000000e+00 -7.3502202871e+02  7.3502202871e+02  0.0000000000e+00 0. 9.
        6     2     1     2   101     0 -1.3875383957e+02 -4.8309897231e+00 -3.4707887914e+02  4.1093808609e+02  1.7067628949e+02  1.590249e-13 9.
       -6     2     1     2     0   103  1.3875383957e+02  4.8309897231e+00 -3.2188964554e+02  3.9013744667e+02  1.7122592365e+02  4.738861e-14 9.
       24     2     3     0     0     0 -7.9061615621e-01  1.0812201912e+01 -1.4140701959e+02  1.6273954808e+02  7.9816580579e+01  1.878778e-13 9.
        5     1     3     0   101     0 -1.3796322341e+02 -1.5643191635e+01 -2.0567185955e+02  2.4819853801e+02  4.8000000000e+00 0. 9.
      -24     2     4     0     0     0  1.3839083038e+02  1.2818595348e+01 -3.3653563133e+02  3.7277430988e+02  7.9925694419e+01  1.822782e-13 9.
       -5     1     4     0     0   103  3.6300918667e-01 -7.9876056252e+00  1.4645985795e+01  1.7363136790e+01  4.8000000000e+00 0. 9.
       -3     1     5     0     0   104 -3.4488731421e+01 -8.4794673842e+00 -9.9206903055e+01  1.0537378031e+02  5.0000000000e-01 0. 9.
        4     1     5     0   104     0  3.3698115265e+01  1.9291669296e+01 -4.2200116536e+01  5.7365767774e+01  1.5000000000e+00 0. 9.
       11     1     7     0     0     0  9.8323546409e+01 -1.1259878050e+01 -1.4457126783e+02  1.7520033138e+02  5.1100000000e-04 0. 9.
      -12     1     7     0     0     0  4.0067283973e+01  2.4078473398e+01 -1.9196436350e+02  1.9757397850e+02  0.0000000000e+00 0. 9.
#pdf   21   21  1.016208e-02  1.130803e-01  2.200145e+02  8.024540e+00  6.805562e-01
</event>
<event>
    12  9999  1.000000e+00  1.867264e+02  7.881542e-03  1.066238e-01
       21    -1     0     0   101   102  0.0000000000e+00  0.0000000000e+00  1.6105112530e+01  1.6105112530e+01  0.0000000000e+00 0. 9.
       21    -1     0     0   103   101  0.0000000000e+00  0.0000000000e+00 -2.5804220904e+03  2.5804220904e+03  0.0000000000e+00 0. 9.
        6     2     1     2   103     0  6.9107572537e+01  3.3693210839e+01 -1.8017028328e+03  1.8113281057e+03  1.6989796788e+02  8.741391e-14 9.
       -6     2     1     2     0   102 -6.9107572537e+01 -3.3693210839e+01 -7.6261414509e+02  7.8519909732e+02  1.7042945491e+02  1.932584e-13 9.
       24     2     3     0     0     0 -1.9706241004e+01 -1.3891938606e+01 -8.1997847211e+02  8.2443500084e+02  8.2140452780e+01  9.127602e-14 9.
        5     1     3     0   103     0  8.8813813541e+01  4.7585149446e+01 -9.8172436071e+02  9.8689310482e+02  4.8000000000e+00 0. 9.
      -24     2     4     0     0     0 -1.8850628619e+01 -4.8746897387e+01 -2.1519018080e+02  2.3524599880e+02  7.9386773679e+01  1.606666e-13 9.
       -5     1     4     0     0   102 -5.0256943917e+01  1.5053686547e+01 -5.4742396429e+02  5.4995309852e+02  4.8000000000e+00 0. 9.
       -3     1     5     0     0   104  2.9625329498e+00  2.6701664884e+01 -5.3588030843e+02  5.3655354856e+02  5.0000000000e-01 0. 9.
        4     1     5     0   104     0 -2.2668773954e+01 -4.0593603490e+01 -2.8409816368e+02  2.8788145227e+02  1.5000000000e+00 0. 9.
        3     1     7     0   105     0  1.9943101711e+00 -4.0901577255e+01 -2.0770156831e+02  2.1170051435e+02  5.0000000000e-01 0. 9.
       -4     1     7     0     0   105 -2.0844938790e+01 -7.8453201313e+00 -7.4886124842e+00  2.3545484452e+01  1.5000000000e+00 0. 9.
#pdf   21   21  2.477710e-03  3.969880e-01  1.864843e+02  2.144197e+01  3.647999e-02
</event>
<event>
    12  9999  1.000000e+00  2.405104e+02  7.904407e-03  1.034209e-01
       21    -1     0     0   101   102  0.0000000000e+00  0.0000000000e+00  7.4397625137e+02  7.4397625137e+02  0.0000000000e+00 0. 9.
       21    -1     0     0   103   101  0.0000000000e+00  0.0000000000e+00 -1.4609271667e+02  1.4609271667e+02  0.0000000000e+00 0. 9.
        6     2     1     2   103     0  1.3505946560e+02  6.8903961463e+01 -1.2336807675e+01  2.2985236970e+02  1.7231105560e+02  1.031282e-13 9.
       -6     2     1     2     0   102 -1.3505946560e+02 -6.8903961463e+01  6.1022034237e+02  6.6021659833e+02  2.0131635629e+02  1.249783e-13 9.
       24     2     3     0     0     0  4.5042475281e+01  7.9766603732e+01 -5.0320145751e+01  1.3143067741e+02  7.9689210343e+01  7.838433e-15 9.
        5     1     3     0   103     0  9.0016990320e+01 -1.0862642269e+01  3.7983338075e+01  9.8421692297e+01  4.8000000000e+00 0. 9.
      -24     2     4     0     0     0 -4.4885124118e+01 -1.0259249296e+02  4.6900806462e+02  4.8924795675e+02  8.2795558602e+01  2.971547e-15 9.
       -5     1     4     0     0   102 -9.0174341483e+01  3.3688531499e+01  1.4121227775e+02  1.7096864158e+02  4.8000000000e+00 0. 9.
      -15     1     5     0     0     0 -3.7969273399e+00 -7.0296076230e+00 -2.8262503815e+01  2.9423770183e+01  1.7768200000e+00  1.955559e-01 9.
       16     1     5     0     0     0  4.8839402621e+01  8.6796211355e+01 -2.2057641936e+01  1.0200690723e+02  0.0000000000e+00 0. 9.
        3     1     7     0   104     0 -4.7703427650e+01 -4.8672392917e+01  1.3855738075e+02  1.5441184088e+02  5.0000000000e-01 0. 9.
       -4     1     7     0     0   104  2.8183035319e+00 -5.3920100045e+01  3.3045068387e+02  3.3483611587e+02  1.5000000000e+00 0. 9.
#pdf   21   21  1.144579e-01  2.247580e-02  2.295211e+02  6.654188e-01  4.148221e+00
</event>
<event>
    12  9999  1.000000e+00  1.898913e+02  7.883056e-03  1.064049e-01
       21    -1     0     0   101   102  0.0000000000e+00  0.0000000000e+00  4.7160268590e+02  4.7160268590e+02  0.0000000000e+00 0. 9.
       21    -1     0     0   103   101  0.0000000000e+00  0.0000000000e+00 -8.2728323425e+01  8.2728323425e+01  0.0000000000e+00 0. 9.
        6     2     1     2   103     0 -2.8940308817e+01  7.4089835544e+01  1.1509389969e+02  2.1918126620e+02  1.6872159465e+02  1.559087e-13 9.
       -6     2     1     2     0   102  2.8940308817e+01 -7.4089835544e+01  2.7378046280e+02  3.3514974313e+02  1.7618956640e+02  1.228041e-14 9.
       24     2     3     0     0     0 -3.6758760477e+01  1.1006984381e+02  6.0994215710e+01  1.5356491924e+02  7.9970701412e+01  8.816018e-14 9.
        5     1     3     0   103     0  7.8184516599e+00 -3.5980008267e+01  5.4099683975e+01  6.5616346953e+01  4.8000000000e+00 0. 9.
      -24     2     4     0     0     0  5.4584255406e+01 -1.6772643330e+01  2.4698193934e+02  2.6670945252e+02  8.2904108453e+01  1.168436e-13 9.
       -5     1     4     0     0   102 -2.5643946589e+01 -5.7317192214e+01  2.6798523451e+01  6.8440290612e+01  4.8000000000e+00 0. 9.
      -11     1     5     0     0     0 -5.8964825292e+01  8.1816633056e+01  2.7721246994e+01  1.0459101109e+02  5.1100000000e-04 0. 9.
       12     1     5     0     0     0  2.2206064815e+01  2.8253210755e+01  3.3272968715e+01  4.8973908152e+01  0.0000000000e+00 0. 9.
        1     1     7     0   104     0  3.7924743993e+01  2.3404673726e+01  6.0032155989e+01  7.4766527349e+01  3.3000000000e-01 0. 9.
       -2     1     7     0     0   104  1.6659511413e+01 -4.0177317056e+01  1.8694978335e+02  1.9194292517e+02  3.3000000000e-01 0. 9.
#pdf   21   21  7.255426e-02  1.272743e-02  1.865310e+02  1.245256e+00  6.720346e+00
</event>
<event>
    12  9999  1.000000e+00  1.813713e+02  7.878922e-03  1.070049e-01
       21    -1     0     0   101   102  0.0000000000e+00  0.0000000000e+00  5.0793839526e+02  5.0793839526e+02  0.0000000000e+00 0. 9.
       21    -1     0     0   103   101  0.0000000000e+00  0.0000000000e+00 -8.2280375381e+01  8.2280375381e+01  0.0000000000e+00 0. 9.
        6     2     1     2   103     0 -5.3835986342e+01  1.9761436452e+01  7.6621778371e+01  1.9685157163e+02  1.7201981437e+02  5.239831e-14 9.
       -6     2     1     2     0   102  5.3835986342e+01 -1.9761436452e+01  3.4903624151e+02  3.9336719901e+02  1.7211225284e+02  1.369604e-14 9.
       24     2     3     0     0     0 -7.1273204781e+01 -4.3229078459e+01  4.4480259655e+01  1.2385856661e+02  8.0086378869e+01  3.249881e-14 9.
        5     1     3     0   103     0  1.7437218439e+01  6.2990514912e+01  3.2141518716e+01  7.2993005015e+01  4.8000000000e+00 0. 9.
      -24     2     4     0     0     0  1.3729369106e+01  3.8946239999e+01  1.0711710069e+02  1.4117076226e+02  8.2157200956e+01  9.690780e-14 9.
       -5     1     4     0     0   102  4.0106617236e+01 -5.8707676452e+01  2.4191914081e+02  2.5219643675e+02  4.8000000000e+00 0. 9.
       -3     1     5     0     0   104 -2.6290735307e+01 -6.1057464981e+01  1.8940280056e+01  6.9124532559e+01  5.0000000000e-01 0. 9.
        4     1     5     0   104     0 -4.4982469474e+01  1.7828386522e+01  2.5539979599e+01  5.4734034054e+01  1.5000000000e+00 0. 9.
        3     1     7     0   105     0  4.5075684763e+01  3.9889814656e+01  7.6206224196e+01  9.7111550685e+01  5.0000000000e-01 0. 9.
       -4     1     7     0     0   105 -3.1346315658e+01 -9.4357465720e-01  3.0910876498e+01  4.4059211572e+01  1.5000000000e+00 0. 9.
#pdf   21   21  7.814437e-02  1.265852e-02  1.813275e+02  1.139168e+00  6.748516e+00
</event>
<event>
    12  9999  1.000000e+00  3.473009e+02  7.937835e-03  9.910376e-02
       21    -1     0     0   101   102  0.0000000000e+00  0.0000000000e+00  1.5181652465e+02  1.5181652465e+02  0.0000000000e+00 0. 9.
       21    -1     0     0   103   101  0.0000000000e+00  0.0000000000e+00 -7.9452387277e+02  7.9452387277e+02  0.0000000000e+00 0. 9.
        6     2     1     2   103     0 -2.9994535726e+02  4.0521527328e+01 -3.2233783522e+02  4.7294036746e+02  1.6781447983e+02  1.054672e-13 9.
       -6     2     1     2     0   102  2.9994535726e+02 -4.0521527328e+01 -3.2036951290e+02  4.7340002997e+02  1.7280553248e+02  2.084159e-13 9.
       24     2     3     0     0     0 -7.1670334355e+01  4.0828360899e+01 -1.3630522247e+02  1.7842253568e+02  8.0323693180e+01  1.199179e-13 9.
        5     1     3     0   103     0 -2.2827502290e+02 -3.0683357170e-01 -1.8603261275e+02  2.9451783178e+02  4.8000000000e+00 0. 9.
      -24     2     4     0     0     0  1.9697830205e+02  2.4506648622e+01 -2.7020289080e+02  3.4160242719e+02  6.5433850224e+01  5.671008e-15 9.
       -5     1     4     0     0   102  1.0296705521e+02 -6.5028175950e+01 -5.0166622099e+01  1.3179760278e+02  4.8000000000e+00 0. 9.
       -1     1     5     0     0   104 -8.8605901544e+01  4.0042073212e+01 -1.0712357366e+02  1.4467184367e+02  3.3000000000e-01 0. 9.
        2     1     5     0   104     0  1.6935567189e+01  7.8628768713e-01 -2.9181648807e+01  3.3750692015e+01  3.3000000000e-01 0. 9.
        3     1     7     0   105     0  1.2095130559e+01  1.7398700351e+01 -4.7858052524e+01  5.2341667422e+01  5.0000000000e-01 0. 9.
       -4     1     7     0     0   105  1.8488317149e+02  7.1079482713e+00 -2.2234483828e+02  2.8926075976e+02  1.5000000000e+00 0. 9.
#pdf   21   21  2.335639e-02  1.222344e-01  3.460793e+02  3.959780e+00  5.750990e-01
</event>
<event>
    12  9999  1.000000e+00  1.741602e+02  7.875272e-03  1.075410e-01
       21    -1     0     0   101   102  0.0000000000e+00  0.0000000000e+00  4.9171474700e+02  4.9171474700e+02  0.0000000000e+00 0. 9.
       21    -1     0     0   103   101  0.0000000000e+00  0.0000000000e+00 -6.1749094782e+01  6.1749094782e+01  0.0000000000e+00 0. 9.
        6     2     1     2   103     0 -3.7403919023e+01  1.0678174530e+01  2.0516863798e+02  2.6856967984e+02  1.6888583821e+02  6.458822e-13 9.
       -6     2     1     2     0   102  3.7403919023e+01 -1.0678174530e+01  2.2479701423e+02  2.8489416194e+02  1.7063970619e+02  4.294286e-14 9.
       24     2     3     0     0     0  3.9708881722e+01 -1.5539511967e+01  9.3714720605e+01  1.3044377053e+02  8.0092800503e+01  3.696904e-13 9.
        5     1     3     0   103     0 -7.7112800745e+01  2.6217686496e+01  1.1145391738e+02  1.3812590931e+02  4.8000000000e+00 0. 9.
      -24     2     4     0     0     0  6.0417616364e+01  1.0516589410e+01  2.3074970522e+02  2.5268666571e+02  8.2729907210e+01  5.810944e-14 9.
       -5     1     4     0     0   102 -2.3013697341e+01 -2.1194763940e+01 -5.9526909848e+00  3.2207496235e+01  4.8000000000e+00 0. 9.
      -15     1     5     0     0     0 -1.1100833309e+01 -4.7923895366e+00 -9.1134934577e+00  1.5244945062e+01  1.7768200000e+00  1.172911e-02 9.
       16     1     5     0     0     0  5.0809715031e+01 -1.0747122430e+01  1.0282821406e+02  1.1519882547e+02  0.0000000000e+00 0. 9.
        3     1     7     0   104     0  7.2370311949e+01  2.7256133277e+01  1.4327630438e+02  1.6281495094e+02  5.0000000000e-01 0. 9.
       -4     1     7     0     0   104 -1.1952695585e+01 -1.6739543867e+01  8.7473400842e+01  8.9871714769e+01  1.5000000000e+00 0. 9.
#pdf   21   21  7.564842e-02  9.499861e-03  1.733075e+02  1.190394e+00  8.423778e+00
</event>
<event>
    12  9999  1.000000e+00  2.469240e+02  7.906792e-03  1.030991e-01
       21    -1     0     0   101   102  0.0000000000e+00  0.0000000000e+00  7.0436509020e+01  7.0436509020e+01  0.0000000000e+00 0. 9.
       21    -1     0     0   102   103  0.0000000000e+00  0.0000000000e+00 -9.0472955785e+02  9.0472955785e+02  0.0000000000e+00 0. 9.
        6     2     1     2   101     0 -1.4935343008e+02 -9.5523941210e+01 -3.1644113566e+02  4.0163315172e+02  1.7246137482e+02  9.736219e-14 9.
       -6     2     1     2     0   103  1.4935343008e+02  9.5523941210e+01 -5.1785191317e+02  5.7353291515e+02  1.7128377146e+02  1.048406e-14 9.
       24     2     3     0     0     0 -1.7681372535e+02 -8.9486310350e+01 -3.0112018153e+02  3.6925580719e+02  8.0034956178e+01  2.197615e-14 9.
        5     1     3     0   101     0  2.7460295275e+01 -6.0376308599e+00 -1.5320954127e+01  3.2377344523e+01  4.8000000000e+00 0. 9.
      -24     2     4     0     0     0  2.6676359884e+01  2.9752677424e+01 -3.1540083714e+02  3.2779931778e+02  7.9861471795e+01  4.685652e-14 9.
       -5     1     4     0     0   103  1.2267707019e+02  6.5771263786e+01 -2.0245107603e+02  2.4573359737e+02  4.8000000000e+00 0. 9.
      -13     1     5     0     0     0  4.3634241596e-01 -1.3460653279e+01 -5.4698955903e+01  5.6332641712e+01  1.0566000000e-01  3.597590e+05 9.
       14     1     5     0     0     0 -1.7725006777e+02 -7.6025657071e+01 -2.4642122563e+02  3.1292316548e+02  0.0000000000e+00 0. 9.
        3     1     7     0   104     0  6.6441711250e+00  4.6704709335e+01 -9.7450501380e+01  1.0826968691e+02  5.0000000000e-01 0. 9.
       -4     1     7     0     0   104  2.0032188759e+01 -1.6952031911e+01 -2.1795033576e+02  2.1952963087e+02  1.5000000000e+00 0. 9.
#pdf   21   21  1.083639e-02  1.391892e-01  2.465145e+02  7.636788e+00  4.894071e-01
</event>
<event>
    12  9999  1.000000e+00  2.176231e+02  7.895358e-03  1.046627e-01
       21    -1     0     0   101   102  0.0000000000e+00  0.0000000000e+00  6.0613478961e+02  6.0613478961e+02  0.0000000000e+00 0. 9.
       21    -1     0     0   103   101  0.0000000000e+00  0.0000000000e+00 -5.2706353954e+02  5.2706353954e+02  0.0000000000e+00 0. 9.
        6     2     1     2   103     0 -1.1712574613e+02 -7.4128928993e+01 -4.8329832697e+02  5.3113548599e+02  1.7121358912e+02  3.547596e-14 9.
       -6     2     1     2     0   102  1.1712574613e+02  7.4128928993e+01  5.6236957704e+02  6.0206284316e+02  1.6433681091e+02  6.566039e-14 9.
       24     2     3     0     0     0 -2.1029768154e+01 -1.9869986072e+01 -7.9408912819e+01  1.1241341977e+02  7.4121076723e+01  4.260538e-14 9.
        5     1     3     0   103     0 -9.6095977977e+01 -5.4258942921e+01 -4.0388941416e+02  4.1872206622e+02  4.8000000000e+00 0. 9.
      -24     2     4     0     0     0  5.8711928485e+01  1.0189207318e+02  3.0793550787e+02  3.3949342031e+02  8.1255278595e+01  4.246913e-13 9.
       -5     1     4     0     0   102  5.8413817645e+01 -2.7763144188e+01  2.5443406916e+02  2.6256942285e+02  4.8000000000e+00 0. 9.
      -11     1     5     0     0     0  6.9041678494e+00  2.4203424527e+01 -3.8998960644e+01  4.6415430884e+01  5.1100000000e-04 0. 9.
       12     1     5     0     0     0 -2.7933936003e+01 -4.4073410599e+01 -4.0409952176e+01  6.5997988888e+01  0.0000000000e+00 0. 9.
        1     1     7     0   104     0 -8.1071672821e+00  4.3904294885e+01  5.1156063566e+01  6.7899668705e+01  3.3000000000e-01 0. 9.
       -2     1     7     0     0   104  6.6819095768e+01  5.7987778296e+01  2.5677944431e+02  2.7159375160e+02  3.3000000000e-01 0. 9.
#pdf   21   21  9.325151e-02  8.108670e-02  2.149887e+02  8.922690e-01  1.070921e+00
</event>
<event>
    12  9999  1.000000e+00  3.284628e+02  7.932743e-03  9.973536e-02
       21    -1     0     0   101   102  0.0000000000e+00  0.0000000000e+00  5.0992440369e+02  5.0992440369e+02  0.0000000000e+00 0. 9.
       21    -1     0     0   103   101  0.0000000000e+00  0.0000000000e+00 -2.1263637475e+02  2.1263637475e+02  0.0000000000e+00 0. 9.
        6     2     1     2   103     0  1.6180600347e+02  2.2840443262e+02  1.2302738771e+02  3.5052446365e+02  1.7141147538e+02  1.029511e-14 9.
       -6     2     1     2     0   102 -1.6180600347e+02 -2.2840443262e+02  1.7426064123e+02  3.7203631480e+02  1.7232086597e+02  2.788049e-13 9.
       24     2     3     0     0     0  1.8884565522e+02  2.1378795375e+02  1.1829345330e+02  3.1905647426e+02  8.0222951867e+01  3.866248e-14 9.
        5     1     3     0   103     0 -2.7039651751e+01  1.4616478862e+01  4.7339344059e+00  3.1467989388e+01  4.8000000000e+00 0. 9.
      -24     2     4     0     0     0 -7.9696657013e+01 -1.9850922046e+02  7.6894792177e+01  2.4112100994e+02  8.0430495592e+01  1.013218e-13 9.
       -5     1     4     0     0   102 -8.2109346453e+01 -2.9895212153e+01  9.7365849054e+01  1.3091530486e+02  4.8000000000e+00 0. 9.
       -1     1     5     0     0   104  1.3630556814e+01  6.3259061372e+01  3.4482018158e+01  7.3325434884e+01  3.3000000000e-01 0. 9.
        2     1     5     0   104     0  1.7521509840e+02  1.5052889238e+02  8.3811435146e+01  2.4573103937e+02  3.3000000000e-01 0. 9.
        3     1     7     0   105     0 -9.1811739992e+01 -1.9104605026e+02  7.9861506504e+01  2.2650849684e+02  5.0000000000e-01 0. 9.
       -4     1     7     0     0   105  1.2115082979e+01 -7.4631702030e+00 -2.9667143267e+00  1.4612513096e+01  1.5000000000e+00 0. 9.
#pdf   21   21  7.844991e-02  3.271329e-02  3.282250e+02  1.075485e+00  2.874605e+00
</event>
<event>
    12  9999  1.000000e+00  2.109393e+02  7.892540e-03  1.050563e-01
       21    -1     0     0   101   102  0.0000000000e+00  0.0000000000e+00  1.9803880042e+02  1.9803880042e+02  0.0000000000e+00 0. 9.
       21    -1     0     0   103   101  0.0000000000e+00  0.0000000000e+00 -2.5052907852e+02  2.5052907852e+02  0.0000000000e+00 0. 9.
        6     2     1     2   103     0 -9.2667802986e+01  8.4151939010e+01 -9.7984842594e+01  2.3048135293e+02  1.6688844814e+02  1.548567e-13 9.
       -6     2     1     2     0   102  9.2667802986e+01 -8.4151939010e+01  4.5494564493e+01  2.1808652600e+02  1.7269367931e+02  5.071886e-13 9.
       24     2     3     0     0     0 -1.5042986559e+01 -5.4795231429e+00 -7.1406932725e+01  1.0887199299e+02  8.0609206658e+01  2.469619e-14 9.
        5     1     3     0   103     0 -7.7624816428e+01  8.9631462152e+01 -2.6577909869e+01  1.2160935994e+02  4.8000000000e+00 0. 9.
      -24     2     4     0     0     0  5.6065000906e+00 -4.5403579866e+01  7.2776644060e+01  1.1884713028e+02  8.2068767178e+01  7.167921e-14 9.
       -5     1     4     0     0   102  8.7061302896e+01 -3.8748359144e+01 -2.7282079567e+01  9.9239395724e+01  4.8000000000e+00 0. 9.
       -1     1     5     0     0   104 -4.4640989963e+01 -3.1320057764e+00 -6.4300138927e+01  7.8340565553e+01  3.3000000000e-01 0. 9.
        2     1     5     0   104     0  2.9598003405e+01 -2.3475173665e+00 -7.1067937986e+00  3.0531427438e+01  3.3000000000e-01 0. 9.
        1     1     7     0   105     0  4.3148176524e+01 -1.6575479959e+01  3.0479495980e+01  5.5368043567e+01  3.3000000000e-01 0. 9.
       -2     1     7     0     0   105 -3.7541676433e+01 -2.8828099906e+01  4.2297148080e+01  6.3479086708e+01  3.3000000000e-01 0. 9.
#pdf   21   21  3.046751e-02  3.854294e-02  2.086160e+02  3.140591e+00  2.491948e+00
</event>
<event>
    12  9999  1.000000e+00  1.967208e+02  7.886241e-03  1.059477e-01
       21    -1     0     0   101   102  0.0000000000e+00  0.0000000000e+00  5.2529016928e+02  5.2529016928e+02  0.0000000000e+00 0. 9.
       21    -1     0     0   103   101  0.0000000000e+00  0.0000000000e+00 -1.1215018243e+02  1.1215018243e+02  0.0000000000e+00 0. 9.
        6     2     1     2   103     0  3.2604196953e+01 -7.9971854130e+01  2.2407679305e+01  2.0155095157e+02  1.8072672983e+02  9.541790e-15 9.
       -6     2     1     2     0   102 -3.2604196953e+01  7.9971854130e+01  3.9073230754e+02  4.3588940013e+02  1.7282737594e+02  3.429415e-13 9.
       24     2     3     0     0     0 -3.7117292994e+01 -9.4294019080e+01  2.1704368621e+01  1.3020850127e+02  7.8829681670e+01  7.778953e-14 9.
        5     1     3     0   103     0  6.9721489947e+01  1.4322164950e+01  7.0331068411e-01  7.1342450303e+01  4.8000000000e+00 0. 9.
      -24     2     4     0     0     0  2.6742399631e+01  3.8369116919e+01  3.2458363019e+02  3.3764738373e+02  8.0398244283e+01  8.261478e-14 9.
       -5     1     4     0     0   102 -5.9346596584e+01  4.1602737210e+01  6.6148677354e+01  9.8242016394e+01  4.8000000000e+00 0. 9.
       -1     1     5     0     0   104 -5.6177384835e+01 -3.5696266830e+01  7.5826658939e+00  6.6990504959e+01  3.3000000000e-01 0. 9.
        2     1     5     0   104     0  1.9060091841e+01 -5.8597752249e+01  1.4121702727e+01  6.3217996311e+01  3.3000000000e-01 0. 9.
        3     1     7     0   105     0  1.7529626567e+01 -5.4930199187e+00  1.2192109455e+01  2.2053539588e+01  5.0000000000e-01 0. 9.
       -4     1     7     0     0   105  9.2127730639e+00  4.3862136838e+01  3.1239152074e+02  3.1559384415e+02  1.5000000000e+00 0. 9.
#pdf   21   21  8.081387e-02  1.725387e-02  1.932041e+02  1.086074e+00  5.237827e+00
</event>
<event>
    12  9999  1.000000e+00  1.882358e+02  7.882267e-03  1.065188e-01
       21    -1     0     0   101   102  0.0000000000e+00  0.0000000000e+00  4.4239778709e+02  4.4239778709e+02  0.0000000000e+00 0. 9.
       21    -1     0     0   103   101  0.0000000000e+00  0.0000000000e+00 -9.1718395238e+01  9.1718395238e+01  0.0000000000e+00 0. 9.
        6     2     1     2   103     0 -1.4393839646e+01  7.7236147689e+01  7.9998067173e+01  2.0423358787e+02  1.7070167701e+02  3.854266e-14 9.
       -6     2     1     2     0   102  1.4393839646e+01 -7.7236147689e+01  2.7068132468e+02  3.2988259446e+02  1.7141044737e+02  2.099030e-13 9.
       24     2     3     0     0     0 -3.0064891366e+01  8.6665224666e+01  1.1293292892e+02  1.6625682559e+02  8.0453258234e+01  1.019482e-13 9.
        5     1     3     0   103     0  1.5671051720e+01 -9.4290769771e+00 -3.2934861752e+01  3.7976762280e+01  4.8000000000e+00 0. 9.
      -24     2     4     0     0     0 -3.8673432800e+01  5.9749185998e+00  1.2534354406e+02  1.5413753071e+02  8.0721993768e+01  9.665840e-14 9.
       -5     1     4     0     0   102  5.3067272446e+01 -8.3211066288e+01  1.4533778062e+02  1.7574506375e+02  4.8000000000e+00 0. 9.
       -3     1     5     0     0   104  8.9206017344e+00  7.8716317923e+01  9.1529900688e+01  1.2105291637e+02  5.0000000000e-01 0. 9.
        4     1     5     0   104     0 -3.8985493100e+01  7.9489067424e+00  2.1403028236e+01  4.5203909215e+01  1.5000000000e+00 0. 9.
        1     1     7     0   105     0 -8.0804518514e+00 -1.9376208014e+01  1.0928229219e+02  1.1128099310e+02  3.3000000000e-01 0. 9.
       -2     1     7     0     0   105 -3.0592980949e+01  2.5351126614e+01  1.6061251870e+01  4.2856537606e+01  3.3000000000e-01 0. 9.
#pdf   21   21  6.806120e-02  1.411052e-02  1.879140e+02  1.344155e+00  6.185830e+00
</event>
<event>
    12  9999  1.000000e+00  2.415225e+02  7.904788e-03  1.033694e-01
       21    -1     0     0   101   102  0.0000000000e+00  0.0000000000e+00  1.8404572026e+02  1.8404572026e+02  0.0000000000e+00 0. 9.
       21    -1     0     0   102   103  0.0000000000e+00  0.0000000000e+00 -4.2566652049e+02  4.2566652049e+02  0.0000000000e+00 0. 9.
        6     2     1     2   101     0  1.2247542066e+01 -1.6992823929e+02  3.3215941362e+01  2.4390402894e+02  1.7134838131e+02  5.204912e-14 9.
       -6     2     1     2     0   103 -1.2247542066e+01  1.6992823929e+02 -2.7483674159e+02  3.6580821182e+02  1.7104035930e+02  1.177769e-13 9.
       24     2     3     0     0     0  7.4865878983e-01 -1.7767239385e+01  3.9409009925e+01  9.1108124848e+01  8.0195916758e+01  1.531658e-13 9.
        5     1     3     0   101     0  1.1498883276e+01 -1.5216099991e+02 -6.1930685638e+00  1.5279590409e+02  4.8000000000e+00 0. 9.
      -24     2     4     0     0     0 -2.1195711962e+01  1.8517832897e+02 -1.8512849691e+02  2.7424815424e+02  7.8735112924e+01  1.726401e-13 9.
       -5     1     4     0     0   103  8.9481698961e+00 -1.5250089682e+01 -8.9708244686e+01  9.1560057582e+01  4.8000000000e+00 0. 9.
       -1     1     5     0     0   104  1.7055457559e+01 -4.5875026407e+01  2.9441326702e+01  5.7116611405e+01  3.3000000000e-01 0. 9.
        2     1     5     0   104     0 -1.6306798769e+01  2.8107787022e+01  9.9676832231e+00  3.3991513443e+01  3.3000000000e-01 0. 9.
       13     1     7     0     0     0 -4.5840740778e+01  1.2776875224e+02 -1.5105068198e+02  2.0308261190e+02  1.0566000000e-01  1.810420e+05 9.
      -14     1     7     0     0     0  2.4645028816e+01  5.7409576734e+01 -3.4077814926e+01  7.1165542338e+01  0.0000000000e+00 0. 9.
#pdf   21   21  2.831473e-02  6.548716e-02  2.414134e+02  3.348279e+00  1.379445e+00
</event>
<event>
    12  9999  1.000000e+00  1.789724e+02  7.877724e-03  1.071803e-01
       21    -1     0     0   101   102  0.0000000000e+00  0.0000000000e+00  1.1831978459e+02  1.1831978459e+02  0.0000000000e+00 0. 9.
       21    -1     0     0   103   101  0.0000000000e+00  0.0000000000e+00 -2.7395899409e+02  2.7395899409e+02  0.0000000000e+00 0. 9.
        6     2     1     2   103     0 -2.6777769450e+01  4.7282316161e+01 -5.6119467380e+01  1.8671299840e+02  1.6958680017e+02  1.226170e-14 9.
       -6     2     1     2     0   102  2.6777769450e+01 -4.7282316161e+01 -9.9519742121e+01  2.0556578028e+02  1.7146557845e+02  4.799066e-15 9.
       24     2     3     0     0     0  4.3666530018e+01  2.1886732255e+01 -3.5552844475e+00  9.5097670329e+01  8.1517678831e+01  5.596931e-14 9.
        5     1     3     0   103     0 -7.0444299468e+01  2.5395583906e+01 -5.2564182932e+01  9.1615328067e+01  4.8000000000e+00 0. 9.
      -24     2     4     0     0     0 -4.0397020783e+01 -6.3226281412e+01 -6.3884807242e+01  1.2772266206e+02  8.1254709753e+01  4.721972e-13 9.
       -5     1     4     0     0   102  6.7174790233e+01  1.5943965251e+01 -3.5634934880e+01  7.7843118223e+01  4.8000000000e+00 0. 9.
       -1     1     5     0     0   104 -1.6079000320e+01  2.9672930977e+01  5.4128796583e+00  3.4182235887e+01  3.3000000000e-01 0. 9.
        2     1     5     0   104     0  5.9745530337e+01 -7.7861987220e+00 -8.9681641058e+00  6.0915434442e+01  3.3000000000e-01 0. 9.
        3     1     7     0   105     0 -3.0448800540e+01 -1.1743021783e+01 -6.7669260099e+01  7.5129267115e+01  5.0000000000e-01 0. 9.
       -4     1     7     0     0   105 -9.9482202431e+00 -5.1483259628e+01  3.7844528574e+00  5.2593394941e+01  1.5000000000e+00 0. 9.
#pdf   21   21  1.820304e-02  4.214754e-02  1.780796e+02  5.010399e+00  2.292705e+00
</event>
<event>
    12  9999  1.000000e+00  1.990765e+02  7.887315e-03  1.057946e-01
       21    -1     0     0   101   102  0.0000000000e+00  0.0000000000e+00  4.5725757204e+02  4.5725757204e+02  0.0000000000e+00 0. 9.
       21    -1     0     0   102   103  0.0000000000e+00  0.0000000000e+00 -1.2029536701e+02  1.2029536701e+02  0.0000000000e+00 0. 9.
        6     2     1     2   101     0 -4.6892931924e+01  8.9143198256e+01  1.5997524517e+01  2.0002454556e+02  1.7207103527e+02  1.228822e-14 9.
       -6     2     1     2     0   103  4.6892931924e+01 -8.9143198256e+01  3.2096468052e+02  3.7752839349e+02  1.7135899419e+02  5.257611e-15 9.
       24     2     3     0     0     0  1.5026380068e+00  5.5329078446e+01 -5.2607419956e+01  1.0938678139e+02  7.8322170977e+01  3.005376e-14 9.
        5     1     3     0   101     0 -4.8395569931e+01  3.3814119810e+01  6.8604944473e+01  9.0637764169e+01  4.8000000000e+00 0. 9.
      -24     2     4     0     0     0 -1.4384178899e+01 -5.6159021010e+01  7.8078404490e+01  1.2482377671e+02  7.8255975747e+01  5.249141e-14 9.
       -5     1     4     0     0   103  6.1277110824e+01 -3.2984177246e+01  2.4288627603e+02  2.5270461678e+02  4.8000000000e+00 0. 9.
       -3     1     5     0     0   104  1.2871090980e+01 -9.6034455004e+00 -3.8833851829e+01  4.2026291728e+01  5.0000000000e-01 0. 9.
        4     1     5     0   104     0 -1.1368452973e+01  6.4932523947e+01 -1.3773568127e+01  6.7360489666e+01  1.5000000000e+00 0. 9.
       11     1     7     0     0     0 -1.7746756019e+01 -4.2569260716e+01  9.3340676325e+01  1.0411326123e+02  5.1100000000e-04 0. 9.
      -12     1     7     0     0     0  3.3625771196e+00 -1.3589760294e+01 -1.5262271834e+01  2.0710515476e+01  0.0000000000e+00 0. 9.
#pdf   21   21  7.034732e-02  1.850698e-02  1.987696e+02  1.286061e+00  4.933405e+00
</event>
<event>
    12  9999  1.000000e+00  1.762246e+02  7.876332e-03  1.073847e-01
       -2    -1     0     0     0   101  0.0000000000e+00  0.0000000000e+00  1.9472998063e+01  1.9472998063e+01  0.0000000000e+00 0. 9.
        2    -1     0     0   102     0  0.0000000000e+00  0.0000000000e+00 -1.6152229743e+03  1.6152229743e+03  0.0000000000e+00 0. 9.
       -6     2     1     2     0   101  3.1587115695e+01 -2.9492662357e+01 -7.0465338369e+02  7.2628593729e+02  1.7055001774e+02  1.002543e-13 9.
        6     2     1     2   102     0 -3.1587115695e+01  2.9492662357e+01 -8.9109659254e+02  9.0841003507e+02  1.7113763922e+02  2.357854e-13 9.
      -24     2     3     0     0     0 -3.2479872585e+01 -2.9065237379e+01 -2.6364827716e+02  2.8062540991e+02  8.5676580761e+01  1.027289e-13 9.
       -5     1     3     0     0   101  6.4066988281e+01 -4.2742497827e-01 -4.4100510653e+02  4.4566052738e+02  4.8000000000e+00 0. 9.
       24     2     4     0     0     0 -5.3925935805e+01  1.4034951943e+01 -2.7264359326e+02  2.8934209371e+02  7.9242235064e+01  2.249372e-14 9.
        5     1     4     0   102     0  2.2338820110e+01  1.5457710414e+01 -6.1845299928e+02  6.1906794136e+02  4.8000000000e+00 0. 9.
        3     1     5     0   103     0 -9.6881769807e+00  1.0903449729e+01 -1.7348538109e+00  1.4697132610e+01  5.0000000000e-01 0. 9.
       -4     1     5     0     0   103 -2.2791695605e+01 -3.9968687108e+01 -2.6191342334e+02  2.6592827730e+02  1.5000000000e+00 0. 9.
       -3     1     7     0     0   104  1.5130957753e+01  8.5984122161e-02 -1.1935648215e+01  1.9278562553e+01  5.0000000000e-01 0. 9.
        4     1     7     0   104     0 -6.9056893558e+01  1.3948967821e+01 -2.6070794504e+02  2.7006353116e+02  1.5000000000e+00 0. 9.
#pdf   -2    2  2.995846e-03  2.484958e-01  1.759400e+02  9.724683e-01  3.821886e-01
</event>
<event>
    12  9999  1.000000e+00  2.153691e+02  7.894417e-03  1.047937e-01
       -3    -1     0     0     0   101  0.0000000000e+00  0.0000000000e+00  6.9824609694e+01  6.9824609694e+01  0.0000000000e+00 0. 9.
        3    -1     0     0   102     0  0.0000000000e+00  0.0000000000e+00 -1.0212146003e+03  1.0212146003e+03  0.0000000000e+00 0. 9.
       -6     2     1     2     0   101 -1.1338811516e+02 -6.3188360931e+01 -1.5343680712e+02  2.6457776298e+02  1.7207238379e+02  1.442167e-13 9.
        6     2     1     2   102     0  1.1338811516e+02  6.3188360931e+01 -7.9795318345e+02  8.2646144699e+02  1.7163801082e+02  2.841698e-13 9.
      -24     2     3     0     0     0 -1.2606578169e+02 -1.1463737223e+01 -1.4889591808e+02  2.1091381232e+02  7.9313575277e+01  8.422958e-14 9.
       -5     1     3     0     0   101  1.2677666527e+01 -5.1724623708e+01 -4.5408890404e+00  5.3663950652e+01  4.8000000000e+00 0. 9.
       24     2     4     0     0     0  1.0111102303e+02 -3.1768037697e+00 -6.5360012373e+02  6.6703777268e+02  8.6676048535e+01  9.665659e-15 9.
        5     1     4     0   102     0  1.2277092133e+01  6.6365164701e+01 -1.4435305972e+02  1.5942367430e+02  4.8000000000e+00 0. 9.
        1     1     5     0   103     0 -3.4019195664e+01 -3.1312710673e+01 -8.6108566749e+01  9.7737330078e+01  3.3000000000e-01 0. 9.
       -2     1     5     0     0   103 -9.2046586026e+01  1.9848973450e+01 -6.2787351334e+01  1.1317648225e+02  3.3000000000e-01 0. 9.
       -3     1     7     0     0   104 -2.3503629274e+00 -2.6936456358e+01 -1.3004139266e+02  1.3282360744e+02  5.0000000000e-01 0. 9.
        4     1     7     0   104     0  1.0346138596e+02  2.3759652589e+01 -5.2355873107e+02  5.3421416525e+02  1.5000000000e+00 0. 9.
#pdf   -3    3  1.074225e-02  1.571099e-01  2.151958e+02  3.497867e-01  2.372116e-02
</event>
<event>
    12  9999  1.000000e+00  1.885831e+02  7.882433e-03  1.064948e-01
       21    -1     0     0   101   102  0.0000000000e+00  0.0000000000e+00  1.6994921378e+02  1.6994921378e+02  0.0000000000e+00 0. 9.
       21    -1     0     0   103   101  0.0000000000e+00  0.0000000000e+00 -2.3659648503e+02  2.3659648503e+02  0.0000000000e+00 0. 9.
        6     2     1     2   103     0  8.0547358291e+01  3.5531542294e+00 -1.0245131364e+02  2.1480251403e+02  1.7071422476e+02  8.996511e-14 9.
       -6     2     1     2     0   102 -8.0547358291e+01 -3.5531542294e+00  3.5804042387e+01  1.9174318477e+02  1.7024399438e+02  5.788743e-14 9.
       24     2     3     0     0     0  3.4183583769e+01 -2.5410630930e+01 -1.2495781264e+02  1.5548908439e+02  8.2147324127e+01  2.849590e-13 9.
        5     1     3     0   103     0  4.6363774522e+01  2.8963785159e+01  2.2506499001e+01  5.9313429642e+01  4.8000000000e+00 0. 9.
      -24     2     4     0     0     0 -6.1108140488e+01 -3.8800109030e+01  7.8300660249e+01  1.3301300904e+02  7.9509835140e+01  3.716369e-14 9.
       -5     1     4     0     0   102 -1.9439217803e+01  3.5246954801e+01 -4.2496617862e+01  5.8730175729e+01  4.8000000000e+00 0. 9.
       -1     1     5     0     0   104  4.5935592869e+01 -1.6023680838e+01 -2.5555594142e+01  5.4954839020e+01  3.3000000000e-01 0. 9.
        2     1     5     0   104     0 -1.1752009099e+01 -9.3869500919e+00 -9.9402218496e+01  1.0053424537e+02  3.3000000000e-01 0. 9.
        3     1     7     0   105     0 -7.5322651169e+01 -2.6473205444e+01  3.7814291496e+01  8.8343098354e+01  5.0000000000e-01 0. 9.
       -4     1     7     0     0   105  1.4214510680e+01 -1.2326903586e+01  4.0486368754e+01  4.4669910687e+01  1.5000000000e+00 0. 9.
#pdf   21   21  2.614603e-02  3.639946e-02  1.883707e+02  3.637291e+00  2.652259e+00
</event>
<event>
    12  9999  1.000000e+00  2.305226e+02  7.900567e-03  1.039440e-01
        3    -1     0     0   101     0  0.0000000000e+00  0.0000000000e+00  1.5292152385e+02  1.5292152385e+02  0.0000000000e+00 0. 9.
       -3    -1     0     0     0   102  0.0000000000e+00  0.0000000000e+00 -3.9575452480e+02  3.9575452480e+02  0.0000000000e+00 0. 9.
        6     2     1     2   101     0  1.1191002609e+02 -1.1274387226e+02 -2.4365304622e+01  2.2898978381e+02  1.6311841817e+02  9.906889e-15 9.
       -6     2     1     2     0   102 -1.1191002609e+02  1.1274387226e+02 -2.1846769633e+02  3.1968626484e+02  1.7098578571e+02  2.277561e-13 9.
       24     2     3     0     0     0  1.2640526154e+02 -6.5993929153e+01  1.7463184671e+01  1.6442716654e+02  7.9986507915e+01  9.519086e-15 9.
        5     1     3     0   101     0 -1.4495235451e+01 -4.6749943109e+01 -4.1828489293e+01  6.4562617264e+01  4.8000000000e+00 0. 9.
      -24     2     4     0     0     0 -1.6523133584e+00  6.9301624644e+00 -6.5098425239e+01  1.0312570123e+02  7.9663969230e+01  4.942254e-15 9.
       -5     1     4     0     0   102 -1.1025771273e+02  1.0581370980e+02 -1.5336927109e+02  2.1656056361e+02  4.8000000000e+00 0. 9.
      -11     1     5     0     0     0  5.8493758337e+01  1.2000659574e+01  1.0916823450e+00  5.9722084401e+01  5.1100000000e-04 0. 9.
       12     1     5     0     0     0  6.7911503204e+01 -7.7994588727e+01  1.6371502326e+01  1.0470508214e+02  0.0000000000e+00 0. 9.
       11     1     7     0     0     0  2.8815062127e+01  3.0127185099e+01 -3.3927195062e+01  5.3749508392e+01  5.1100000000e-04 0. 9.
      -12     1     7     0     0     0 -3.0467375485e+01 -2.3197022634e+01 -3.1171230177e+01  4.9376192834e+01  0.0000000000e+00 0. 9.
#pdf    3   -3  2.352639e-02  6.088531e-02  2.276898e+02  1.966000e-01  8.062497e-02
</event>
<event>
    12  9999  1.000000e+00  2.062018e+02  7.890488e-03  1.053448e-01
       21    -1     0     0   101   102  0.0000000000e+00  0.0000000000e+00  1.6484832235e+02  1.6484832235e+02  0.0000000000e+00 0. 9.
       21    -1     0     0   102   103  0.0000000000e+00  0.0000000000e+00 -7.8460706278e+02  7.8460706278e+02  0.0000000000e+00 0. 9.
        6     2     1     2   101     0 -9.2675077702e+01 -6.9716682364e+01  7.8710707329e+01  2.2138736606e+02  1.7137066428e+02  4.739346e-13 9.
       -6     2     1     2     0   103  9.2675077702e+01  6.9716682364e+01 -6.9846944776e+02  7.2806801908e+02  1.6963014216e+02  2.327198e-13 9.
       24     2     3     0     0     0 -1.2258310715e+02 -2.9982489727e+01  4.4831321612e+01  1.6102057828e+02  8.9399168805e+01  1.684397e-13 9.
        5     1     3     0   101     0  2.9908029449e+01 -3.9734192636e+01  3.3879385717e+01  6.0366787777e+01  4.8000000000e+00 0. 9.
      -24     2     4     0     0     0  6.6289944813e+01  9.7980215521e+01 -3.6204140106e+02  3.8939136923e+02  8.0976434456e+01  9.352688e-14 9.
       -5     1     4     0     0   103  2.6385132889e+01 -2.8263533158e+01 -3.3642804670e+02  3.3867664985e+02  4.8000000000e+00 0. 9.
      -13     1     5     0     0     0 -8.9295605146e+01 -1.3360415862e+00  6.7172196683e+01  1.1174795424e+02  1.0566000000e-01  6.478343e+04 9.
       14     1     5     0     0     0 -3.3287502005e+01 -2.8646448141e+01 -2.2340875071e+01  4.9272624040e+01  0.0000000000e+00 0. 9.
        3     1     7     0   104     0  1.6645604115e+01 -5.1148276743e+00 -1.2090867306e+01  2.1205581122e+01  5.0000000000e-01 0. 9.
       -4     1     7     0     0   104  4.9644340698e+01  1.0309504320e+02 -3.4995053375e+02  3.6818578811e+02  1.5000000000e+00 0. 9.
#pdf   21   21  2.536128e-02  1.207088e-01  2.054835e+02  3.730455e+00  6.234923e-01
</event>
<event>
    12  9999  1.000000e+00  2.095079e+02  7.891925e-03  1.051426e-01
       21    -1     0     0   101   102  0.0000000000e+00  0.0000000000e+00  9.8462747590e+01  9.8462747590e+01  0.0000000000e+00 0. 9.
       21    -1     0     0   103   101  0.0000000000e+00  0.0000000000e+00 -5.1328706381e+02  5.1328706381e+02  0.0000000000e+00 0. 9.
        6     2     1     2   103     0  5.5534766864e+01 -1.0759034755e+02 -3.1826102969e+02  3.8098411504e+02  1.7087720642e+02  5.912893e-15 9.
       -6     2     1     2     0   102 -5.5534766864e+01  1.0759034755e+02 -9.6563286528e+01  2.3076569636e+02  1.7108052226e+02  1.064562e-13 9.
       24     2     3     0     0     0 -4.2496646403e+00 -1.2034854672e+02 -1.8826348440e+02  2.3725050144e+02  7.9641876722e+01  1.239165e-15 9.
        5     1     3     0   103     0  5.9784431504e+01  1.2758199171e+01 -1.2999754529e+02  1.4373361360e+02  4.8000000000e+00 0. 9.
      -24     2     4     0     0     0 -8.3557437880e+01  1.3242854397e+02 -7.5856125906e+01  1.8770721760e+02  7.0432116392e+01  2.202487e-13 9.
       -5     1     4     0     0   102  2.8022671017e+01 -2.4838196417e+01 -2.0707160622e+01  4.3058478760e+01  4.8000000000e+00 0. 9.
       -1     1     5     0     0   104 -1.2269651584e+00 -6.8769554089e-02  7.4219509716e+00  7.5302343241e+00  3.3000000000e-01 0. 9.
        4     1     5     0   104     0 -3.0226994819e+00 -1.2027977717e+02 -1.9568543537e+02  2.2972026711e+02  1.5000000000e+00 0. 9.
        3     1     7     0   105     0 -2.5576461095e+01  8.8701775728e+01 -6.7977792233e+01  1.1464462751e+02  5.0000000000e-01 0. 9.
       -4     1     7     0     0   105 -5.7980976786e+01  4.3726768239e+01 -7.8783336734e+00  7.3062590093e+01  1.5000000000e+00 0. 9.
#pdf   21   21  1.514812e-02  7.896724e-02  2.094250e+02  5.833602e+00  1.110105e+00
</event>
<event>
    12  9999  1.000000e+00  3.010860e+02  7.924810e-03  1.007375e-01
       21    -1     0     0   101   102  0.0000000000e+00  0.0000000000e+00  3.0948318347e+02  3.0948318347e+02  0.0000000000e+00 0. 9.
       21    -1     0     0   103   101  0.0000000000e+00  0.0000000000e+00 -5.6378174669e+02  5.6378174669e+02  0.0000000000e+00 0. 9.
        6     2     1     2   103     0 -1.8355026912e+02  1.6717623436e+02 -4.2990572528e+02  5.2514105415e+02  1.7121798823e+02  3.819113e-14 9.
       -6     2     1     2     0   102  1.8355026912e+02 -1.6717623436e+02  1.7560716207e+02  3.4812387601e+02  1.6945135896e+02  2.865657e-13 9.
       24     2     3     0     0     0 -1.4454543795e+02  1.7973591894e+02 -4.1514397138e+02  4.8132242901e+02  7.8283967051e+01  1.919946e-14 9.
        5     1     3     0   103     0 -3.9004831163e+01 -1.2559684584e+01 -1.4761753897e+01  4.3818625138e+01  4.8000000000e+00 0. 9.
      -24     2     4     0     0     0  1.7856120399e+02 -7.8114840951e+01  1.2079329853e+02  2.4331728174e+02  8.1401760903e+01  3.487570e-14 9.
       -5     1     4     0     0   102  4.9890651285e+00 -8.9061393408e+01  5.4813863542e+01  1.0480659427e+02  4.8000000000e+00 0. 9.
      -15     1     5     0     0     0 -5.0009609230e+01  1.2117850261e+02 -2.4884881267e+02  2.8127225097e+02  1.7768200000e+00  2.912056e-01 9.
       16     1     5     0     0     0 -9.4535828725e+01  5.8557416330e+01 -1.6629515872e+02  2.0005017804e+02  0.0000000000e+00 0. 9.
       15     1     7     0     0     0  4.5569327652e+01 -4.7470970735e+01  8.0940299812e+00  6.6322900237e+01  1.7768200000e+00  8.281093e-03 9.
      -16     1     7     0     0     0  1.3299187634e+02 -3.0643870217e+01  1.1269926855e+02  1.7699438150e+02  0.0000000000e+00 0. 9.
#pdf   21   21  4.761280e-02  8.673565e-02  3.005867e+02  1.953886e+00  9.510395e-01
</event>
<event>
    12  9999  1.000000e+00  2.283240e+02  7.899699e-03  1.040629e-01
       21    -1     0     0   101   102  0.0000000000e+00  0.0000000000e+00  3.7866584008e+02  3.7866584008e+02  0.0000000000e+00 0. 9.
       21    -1     0     0   103   101  0.0000000000e+00  0.0000000000e+00 -3.3975115475e+02  3.3975115475e+02  0.0000000000e+00 0. 9.
        6     2     1     2   103     0 -3.7644744817e+01  1.4927573589e+02 -2.5761879772e+02  3.4322045126e+02  1.6653066109e+02  2.978537e-13 9.
       -6     2     1     2     0   102  3.7644744817e+01 -1.4927573589e+02  2.9653348305e+02  3.7519654357e+02  1.7070432801e+02  9.236582e-14 9.
       24     2     3     0     0     0 -5.9399998993e+01  3.7072806853e+01 -1.1593916136e+02  1.6112446633e+02  8.7272284397e+01  2.139119e-14 9.
        5     1     3     0   103     0  2.1755254176e+01  1.1220292903e+02 -1.4167963637e+02  1.8209598493e+02  4.8000000000e+00 0. 9.
      -24     2     4     0     0     0 -5.8689727499e+00 -4.5534827243e+01  5.1205490168e+01  1.0526232226e+02  7.9688700146e+01  9.807962e-14 9.
       -5     1     4     0     0   102  4.3513717567e+01 -1.0374090864e+02  2.4532799289e+02  2.6993422131e+02  4.8000000000e+00 0. 9.
       -1     1     5     0     0   104 -1.7250764381e+01 -8.8683293908e+00 -9.2506194646e+01  9.4518469548e+01  3.3000000000e-01 0. 9.
        2     1     5     0   104     0 -4.2149234612e+01  4.5941136244e+01 -2.3432966713e+01  6.6605996777e+01  3.3000000000e-01 0. 9.
       15     1     7     0     0     0  2.8579965031e+01  6.5504232315e+00  1.9182565103e+01  3.5083476722e+01  1.7768200000e+00  3.077391e-02 9.
      -16     1     7     0     0     0 -3.4448937781e+01 -5.2085250475e+01  3.2022925065e+01  7.0178845538e+01  0.0000000000e+00 0. 9.
#pdf   21   21  5.825628e-02  5.226941e-02  2.267881e+02  1.589105e+00  1.795463e+00
</event>
<event>
    12  9999  1.000000e+00  1.904540e+02  7.883323e-03  1.063665e-01
       21    -1     0     0   101   102  0.0000000000e+00  0.0000000000e+00  1.3372020830e+02  1.3372020830e+02  0.0000000000e+00 0. 9.
       21    -1     0     0   103   101  0.0000000000e+00  0.0000000000e+00 -3.3443595815e+02  3.3443595815e+02  0.0000000000e+00 0. 9.
        6     2     1     2   103     0  8.8871479167e+01  1.3827684162e+01 -2.0243896960e+02  2.7850499185e+02  1.6880210132e+02  2.742011e-13 9.
       -6     2     1     2     0   102 -8.8871479167e+01 -1.3827684162e+01  1.7232197520e+00  1.8965117460e+02  1.6695883889e+02  1.926398e-13 9.
       24     2     3     0     0     0  4.6211448901e+01  2.5805151280e+01 -3.2759246550e+01  1.0306957263e+02  8.2150865640e+01  4.064941e-14 9.
        5     1     3     0   103     0  4.2660030266e+01 -1.1977467118e+01 -1.6967972305e+02  1.7543541922e+02  4.8000000000e+00 0. 9.
      -24     2     4     0     0     0  1.1185449628e+01  2.2013892818e+00  2.4443170354e+01  8.5691776996e+01  8.1336656372e+01  5.902780e-14 9.
       -5     1     4     0     0   102 -1.0005692879e+02 -1.6029073443e+01 -2.2719950602e+01  1.0395939761e+02  4.8000000000e+00 0. 9.
      -13     1     5     0     0     0 -2.0427403845e+01  1.5375940826e+01  4.5789420139e+00  2.5974530951e+01  1.0566000000e-01  4.097558e+05 9.
       14     1     5     0     0     0  6.6638852746e+01  1.0429210454e+01 -3.7338188564e+01  7.7095041678e+01  0.0000000000e+00 0. 9.
       15     1     7     0     0     0  4.2968122285e+01  1.2497997287e+01  8.5041128547e-01  4.4792184112e+01  1.7768200000e+00  8.361448e-02 9.
      -16     1     7     0     0     0 -3.1782672657e+01 -1.0296608005e+01  2.3592759068e+01  4.0899592884e+01  0.0000000000e+00 0. 9.
#pdf   21   21  2.057234e-02  5.145169e-02  1.896433e+02  4.506094e+00  1.848624e+00
</event>
<event>
    12  9999  1.000000e+00  1.813740e+02  7.878923e-03  1.070048e-01
       21    -1     0     0   101   102  0.0000000000e+00  0.0000000000e+00  1.7071399644e+03  1.7071399644e+03  0.0000000000e+00 0. 9.
       21    -1     0     0   102   103  0.0000000000e+00  0.0000000000e+00 -6.6197909128e+01  6.6197909128e+01  0.0000000000e+00 0. 9.
        6     2     1     2   101     0  3.4580282133e+01 -5.4729817460e+01  1.5642008992e+03  1.5744410215e+03  1.6717932976e+02  5.600261e-14 9.
       -6     2     1     2     0   103 -3.4580282133e+01  5.4729817460e+01  7.6741156130e+01  1.9889685208e+02  1.7169625474e+02  1.923647e-13 9.
       24     2     3     0     0     0  2.8758458764e+01 -6.5994957929e+01  5.2422722577e+02  5.3437896641e+02  7.4594316674e+01  5.017640e-14 9.
        5     1     3     0   101     0  5.8218233694e+00  1.1265140469e+01  1.0399736734e+03  1.0400620551e+03  4.8000000000e+00 0. 9.
      -24     2     4     0     0     0 -6.7370698342e+01  8.4878779204e+01  7.4920601125e+01  1.5405796595e+02  7.9859515678e+01  7.467436e-14 9.
       -5     1     4     0     0   103  3.2790416209e+01 -3.0148961744e+01  1.8205550044e+00  4.4838886136e+01  4.8000000000e+00 0. 9.
       -1     1     5     0     0   104  1.8019060093e+01  4.5383441929e+00  3.1979609937e+01  3.6987666139e+01  3.3000000000e-01 0. 9.
        2     1     5     0   104     0  1.0739398671e+01 -7.0533302122e+01  4.9224761584e+02  4.9739130027e+02  3.3000000000e-01 0. 9.
        3     1     7     0   105     0 -1.5143878332e+01  5.1245036726e+01  7.4790584803e+01  9.1919923929e+01  5.0000000000e-01 0. 9.
       -4     1     7     0     0   105 -5.2226820011e+01  3.3633742478e+01  1.3001632242e-01  6.2138042018e+01  1.5000000000e+00 0. 9.
#pdf   21   21  2.626369e-01  1.018429e-02  1.792765e+02  1.496770e-01  7.994099e+00
</event>
<event>
    12  9999  1.000000e+00  2.679091e+02  7.914193e-03  1.021143e-01
       21    -1     0     0   101   102  0.0000000000e+00  0.0000000000e+00  9.3680907563e+01  9.3680907563e+01  0.0000000000e+00 0. 9.
       21    -1     0     0   102   103  0.0000000000e+00  0.0000000000e+00 -2.1571472236e+03  2.1571472236e+03  0.0000000000e+00 0. 9.
        6     2     1     2   101     0  2.0235598986e+02 -4.2180814012e+01 -1.2720923173e+02  2.9604320568e+02  1.6950582081e+02  2.258588e-13 9.
       -6     2     1     2     0   103 -2.0235598986e+02  4.2180814012e+01 -1.9362570843e+03  1.9547849255e+03  1.7136347535e+02  1.486897e-14 9.
       24     2     3     0     0     0  7.3765098788e+01 -1.8451563644e+01 -1.2525330762e+02  1.6517854189e+02  7.6248341828e+01  7.570119e-14 9.
        5     1     3     0   101     0  1.2859089107e+02 -2.3729250368e+01 -1.9559241168e+00  1.3086466379e+02  4.8000000000e+00 0. 9.
      -24     2     4     0     0     0 -6.7371049683e+01  8.9254360692e+01 -1.0318675396e+03  1.0391538090e+03  5.0841127853e+01  7.499561e-14 9.
       -5     1     4     0     0   103 -1.3498494018e+02 -4.7073546680e+01 -9.0438954473e+02  9.1563111650e+02  4.8000000000e+00 0. 9.
       -1     1     5     0     0   104  3.1678148079e+01  2.0922871645e+01 -1.5099721299e+01  4.0858072726e+01  3.3000000000e-01 0. 9.
        2     1     5     0   104     0  4.2086950709e+01 -3.9374435289e+01 -1.1015358632e+02  1.2432046916e+02  3.3000000000e-01 0. 9.
        1     1     7     0   105     0 -5.4822854066e+01  5.8889624388e+01 -8.8529301241e+02  8.8894170783e+02  3.3000000000e-01 0. 9.
       -2     1     7     0     0   105 -1.2548195617e+01  3.0364736304e+01 -1.4657452714e+02  1.5021210114e+02  3.3000000000e-01 0. 9.
#pdf   21   21  1.441245e-02  3.318688e-01  2.673189e+02  6.065890e+00  6.781883e-02
</event>
<event>
    12  9999  1.000000e+00  2.345116e+02  7.902120e-03  1.037318e-01
       21    -1     0     0   101   102  0.0000000000e+00  0.0000000000e+00  3.4431973908e+02  3.4431973908e+02  0.0000000000e+00 0. 9.
       21    -1     0     0   103   101  0.0000000000e+00  0.0000000000e+00 -2.0349249744e+02  2.0349249744e+02  0.0000000000e+00 0. 9.
        6     2     1     2   103     0  8.8169371670e+01 -1.3162171150e+02  1.9769515097e+02  3.0755340994e+02  1.7437779163e+02  3.038082e-14 9.
       -6     2     1     2     0   102 -8.8169371670e+01  1.3162171150e+02 -5.6867909330e+01  2.4025882658e+02  1.7144162738e+02  4.289454e-14 9.
       24     2     3     0     0     0  7.9232624475e+01 -8.7304490929e+01  4.7645679627e+01  1.5076767928e+02  8.0999379085e+01  2.354908e-13 9.
        5     1     3     0   103     0  8.9367471947e+00 -4.4317220567e+01  1.5004947134e+02  1.5678573066e+02  4.8000000000e+00 0. 9.
      -24     2     4     0     0     0 -1.0160284226e+02  3.7450494524e+01 -2.5536085352e+01  1.3999218491e+02  8.4970836679e+01  3.183447e-14 9.
       -5     1     4     0     0   102  1.3433470586e+01  9.4171216971e+01 -3.1331823978e+01  1.0026664167e+02  4.8000000000e+00 0. 9.
       -3     1     5     0     0   104  5.7573362349e+00  8.8178785136e+00  2.5723742218e+01  2.7800410351e+01  5.0000000000e-01 0. 9.
        4     1     5     0   104     0  7.3475288240e+01 -9.6122369442e+01  2.1921937409e+01  1.2296726893e+02  1.5000000000e+00 0. 9.
       13     1     7     0     0     0  1.0474811803e+01  2.1545968649e+01 -4.7190169189e-02  2.3957542409e+01  1.0566000000e-01  1.653184e+05 9.
      -14     1     7     0     0     0 -1.1207765406e+02  1.5904525875e+01 -2.5488895183e+01  1.1603464250e+02  0.0000000000e+00 0. 9.
#pdf   21   21  5.297227e-02  3.130654e-02  2.334317e+02  1.765551e+00  3.045365e+00
</event>
<event>
    12  9999  1.000000e+00  2.412924e+02  7.904701e-03  1.033811e-01
        2    -1     0     0   101     0  0.0000000000e+00  0.0000000000e+00  1.1294101492e+03  1.1294101492e+03  0.0000000000e+00 0. 9.
       -2    -1     0     0     0   102  0.0000000000e+00  0.0000000000e+00 -6.5010344992e+01  6.5010344992e+01  0.0000000000e+00 0. 9.
        6     2     1     2   101     0  4.3532710018e+01 -1.6403881932e+02  8.0471020938e+02  8.4023477142e+02  1.7213982378e+02  3.484625e-13 9.
       -6     2     1     2     0   102 -4.3532710018e+01  1.6403881932e+02  2.5968959486e+02  3.5418572280e+02  1.7089473215e+02  1.562855e-13 9.
       24     2     3     0     0     0 -3.5265588800e+01 -1.1297703944e+02  5.7819736262e+02  5.9498472145e+02  7.5413231088e+01  2.004921e-14 9.
        5     1     3     0   101     0  7.8798298818e+01 -5.1061779885e+01  2.2651284676e+02  2.4525004997e+02  4.8000000000e+00 0. 9.
      -24     2     4     0     0     0 -4.3330843990e+01  7.1970367812e+01  2.2956702291e+02  2.5719577563e+02  7.9945938665e+01  5.983506e-14 9.
       -5     1     4     0     0   102 -2.0186602716e-01  9.2068451508e+01  3.0122571948e+01  9.6989947179e+01  4.8000000000e+00 0. 9.
       -3     1     5     0     0   103  1.4281124543e+01 -5.1202703465e+01  3.3563431559e+02  3.3981805597e+02  5.0000000000e-01 0. 9.
        4     1     5     0   103     0 -4.9546713344e+01 -6.1774335971e+01  2.4256304703e+02  2.5516666548e+02  1.5000000000e+00 0. 9.
        1     1     7     0   104     0  1.3150098959e+01  5.2075958123e+01  8.2952132834e+01  9.8823052770e+01  3.3000000000e-01 0. 9.
       -2     1     7     0     0   104 -5.6480942950e+01  1.9894409689e+01  1.4661489007e+02  1.5837272286e+02  3.3000000000e-01 0. 9.
#pdf    2   -2  1.737554e-01  1.000159e-02  2.408502e+02  4.806501e-01  5.270900e-01
</event>
<event>
    12  9999  1.000000e+00  1.723376e+02  7.874326e-03  1.076809e-01
       21    -1     0     0   101   102  0.0000000000e+00  0.0000000000e+00  2.3484698938e+01  2.3484698938e+01  0.0000000000e+00 0. 9.
       21    -1     0     0   103   101  0.0000000000e+00  0.0000000000e+00 -1.8017822614e+03  1.8017822614e+03  0.0000000000e+00 0. 9.
        6     2     1     2   103     0  2.0490655785e+01 -5.0519821417e+00 -1.3865082340e+03  1.3971461013e+03  1.7078277391e+02  1.143355e-13 9.
       -6     2     1     2     0   102 -2.0490655785e+01  5.0519821417e+00 -3.9178932852e+02  4.2812085912e+02  1.7129857726e+02  2.010386e-14 9.
       24     2     3     0     0     0  2.8516643434e+01  5.9610102068e+01 -7.4516553111e+02  7.5248409359e+02  8.1203935381e+01  4.619851e-14 9.
        5     1     3     0   103     0 -8.0259876494e+00 -6.4662084210e+01 -6.4134270287e+02  6.4466200767e+02  4.8000000000e+00 0. 9.
      -24     2     4     0     0     0 -2.3973166595e+01  5.2295349829e+01 -1.3974924509e+02  1.7162269670e+02  8.1332540765e+01  7.021118e-14 9.
       -5     1     4     0     0   102  3.4825108097e+00 -4.7243367688e+01 -2.5204008343e+02  2.5649816242e+02  4.8000000000e+00 0. 9.
      -15     1     5     0     0     0  4.2035298538e+01  5.1152116969e+01 -7.1751042102e+02  7.2056080018e+02  1.7768200000e+00  1.281282e-01 9.
       16     1     5     0     0     0 -1.3518655103e+01  8.4579850994e+00 -2.7655110094e+01  3.1923293409e+01  0.0000000000e+00 0. 9.
        3     1     7     0   104     0 -3.8383615660e+01 -5.0015885246e+00 -3.9894675217e+01  5.5589144170e+01  5.0000000000e-01 0. 9.
       -4     1     7     0     0   104  1.4410449065e+01  5.7296938354e+01 -9.9854569877e+01  1.1603355253e+02  1.5000000000e+00 0. 9.
#pdf   21   21  3.613031e-03  2.771973e-01  1.720818e+02  1.668071e+01  1.314392e-01
</event>
<event>
    12  9999  1.000000e+00  1.888383e+02  7.882555e-03  1.064772e-01
       21    -1     0     0   101   102  0.0000000000e+00  0.0000000000e+00  2.3434181916e+02  2.3434181916e+02  0.0000000000e+00 0. 9.
       21    -1     0     0   103   101  0.0000000000e+00  0.0000000000e+00 -2.7892964556e+02  2.7892964556e+02  0.0000000000e+00 0. 9.
        6     2     1     2   103     0  9.4444127989e+00  7.8419384722e+01 -1.9535415337e+02  2.7233620247e+02  1.7252525932e+02  5.456247e-14 9.
       -6     2     1     2     0   102 -9.4444127989e+00 -7.8419384722e+01  1.5076632696e+02  2.4093526225e+02  1.7053011000e+02  1.806001e-14 9.
       24     2     3     0     0     0  2.7224453874e+01  6.6058036668e+01 -3.7611458922e+01  1.1304172536e+02  7.9113682335e+01  3.222497e-14 9.
        5     1     3     0   103     0 -1.7780041075e+01  1.2361348054e+01 -1.5774269445e+02  1.5929447711e+02  4.8000000000e+00 0. 9.
      -24     2     4     0     0     0  1.8350920898e+01  1.2448045988e+01  1.0773535920e+02  1.3651220577e+02  8.0851496923e+01  6.898159e-14 9.
       -5     1     4     0     0   102 -2.7795333697e+01 -9.0867430710e+01  4.3030967766e+01  1.0442305649e+02  4.8000000000e+00 0. 9.
      -15     1     5     0     0     0  2.5034074883e+01  5.5902577569e+01 -6.1607493646e+01  8.6893287697e+01  1.7768200000e+00  1.193284e-01 9.
       16     1     5     0     0     0  2.1903789915e+00  1.0155459099e+01  2.3996034724e+01  2.6148437661e+01  0.0000000000e+00 0. 9.
        1     1     7     0   104     0 -2.6067363758e+00 -2.7525233517e+01  1.0986724320e+01  2.9753160605e+01  3.3000000000e-01 0. 9.
       -2     1     7     0     0   104  2.0957657274e+01  3.9973279505e+01  9.6748634878e+01  1.0675904516e+02  3.3000000000e-01 0. 9.
#pdf   21   21  3.605259e-02  4.291225e-02  1.879343e+02  2.677853e+00  2.244177e+00
</event>
<event>
    12  9999  1.000000e+00  1.886609e+02  7.882471e-03  1.064895e-01
       21    -1     0     0   101   102  0.0000000000e+00  0.0000000000e+00  2.3588828422e+02  2.3588828422e+02  0.0000000000e+00 0. 9.
       21    -1     0     0   102   103  0.0000000000e+00  0.0000000000e+00 -5.5703035106e+02  5.5703035106e+02  0.0000000000e+00 0. 9.
        6     2     1     2   101     0 -1.9356476007e+01  5.2215694274e+01  1.7620718081e+02  2.6337173443e+02  1.8765539703e+02  9.827728e-14 9.
       -6     2     1     2     0   103  1.9356476007e+01 -5.2215694274e+01 -4.9734924765e+02  5.2954690085e+02  1.7309677688e+02  2.759355e-14 9.
       24     2     3     0     0     0  1.8021549036e+01  6.4479685829e+01  2.2124178268e+01  1.0427385915e+02  7.6818958103e+01  6.712701e-14 9.
        5     1     3     0   101     0 -3.7378025043e+01 -1.2263991554e+01  1.5408300254e+02  1.5909787528e+02  4.8000000000e+00 0. 9.
      -24     2     4     0     0     0 -4.5181906130e+01 -5.8431474880e+01 -3.8076168774e+02  3.9605705920e+02  8.0162892860e+01  3.044646e-14 9.
       -5     1     4     0     0   103  6.4538382137e+01  6.2157806060e+00 -1.1658755991e+02  1.3348984165e+02  4.8000000000e+00 0. 9.
      -11     1     5     0     0     0 -1.9184934366e+01  1.0486190945e+01 -1.7196710940e+01  2.7816340064e+01  5.1100000000e-04 0. 9.
       12     1     5     0     0     0  3.7206483402e+01  5.3993494884e+01  3.9320889208e+01  7.6457519088e+01  0.0000000000e+00 0. 9.
       13     1     7     0     0     0  1.8429076060e+01 -3.7294147389e+01 -1.3019375360e+02  1.3667812156e+02  1.0566000000e-01  6.481351e+05 9.
      -14     1     7     0     0     0 -6.3610982190e+01 -2.1137327491e+01 -2.5056793414e+02  2.5937893764e+02  0.0000000000e+00 0. 9.
#pdf   21   21  3.629051e-02  8.569698e-02  1.818341e+02  2.664308e+00  1.013279e+00
</event>
<event>
    12  9999  1.000000e+00  6.022932e+02  7.988456e-03  9.327720e-02
       21    -1     0     0   101   102  0.0000000000e+00  0.0000000000e+00  3.2821704456e+02  3.2821704456e+02  0.0000000000e+00 0. 9.
       21    -1     0     0   103   101  0.0000000000e+00  0.0000000000e+00 -1.8431763309e+03  1.8431763309e+03  0.0000000000e+00 0. 9.
        6     2     1     2   103     0  4.2526262183e+02 -3.9179141751e+02 -1.4445990552e+03  1.5652051639e+03  1.6926890504e+02  8.863631e-15 9.
       -6     2     1     2     0   102 -4.2526262183e+02  3.9179141751e+02 -7.0360231074e+01  6.0618821158e+02  1.6782363773e+02  8.630465e-14 9.
       24     2     3     0     0     0  4.1928620837e+02 -3.3623215478e+02 -1.2602295864e+03  1.3724937469e+03  8.1899257369e+01  3.715000e-13 9.
        5     1     3     0   103     0  5.9764134603e+00 -5.5559262724e+01 -1.8436946886e+02  1.9271141699e+02  4.8000000000e+00 0. 9.
      -24     2     4     0     0     0 -1.8125173113e+02  1.0154782637e+02 -1.5001644081e+01  2.2295163956e+02  7.9487314578e+01  1.304663e-13 9.
       -5     1     4     0     0   102 -2.4401089070e+02  2.9024359114e+02 -5.5358586993e+01  3.8323657202e+02  4.8000000000e+00 0. 9.
      -13     1     5     0     0     0  3.9596339419e+02 -3.3581622034e+02 -1.1854511564e+03  1.2941615041e+03  1.0566000000e-01  1.691506e+06 9.
       14     1     5     0     0     0  2.3322814179e+01 -4.1593444787e-01 -7.4778429996e+01  7.8332242757e+01  0.0000000000e+00 0. 9.
        1     1     7     0   104     0 -1.1968803261e+02  9.5785587314e+01  1.5361149205e+01  1.5406549806e+02  3.3000000000e-01 0. 9.
       -2     1     7     0     0   104 -6.1563698521e+01  5.7622390510e+00 -3.0362793286e+01  6.8886141499e+01  3.3000000000e-01 0. 9.
#pdf   21   21  5.049493e-02  2.835656e-01  6.020910e+02  1.752130e+00  9.317968e-02
</event>
<event>
    12  9999  1.000000e+00  2.381008e+02  7.903495e-03  1.035446e-01
       21    -1     0     0   101   102  0.0000000000e+00  0.0000000000e+00  4.9305760806e+02  4.9305760806e+02  0.0000000000e+00 0. 9.
       21    -1     0     0   102   103  0.0000000000e+00  0.0000000000e+00 -2.7686855305e+02  2.7686855305e+02  0.0000000000e+00 0. 9.
        6     2     1     2   101     0  2.7469851830e+01 -1.6270159951e+02  4.0245857365e+02  4.6760705529e+02  1.7163056665e+02  1.549360e-13 9.
       -6     2     1     2     0   103 -2.7469851830e+01  1.6270159951e+02 -1.8626951865e+02  3.0231910582e+02  1.7168024034e+02  1.132092e-13 9.
       24     2     3     0     0     0  2.0334415297e+01 -1.8010691557e+02  2.7961141872e+02  3.4323534244e+02  8.2316251995e+01  2.377712e-14 9.
        5     1     3     0   101     0  7.1354365330e+00  1.7405316056e+01  1.2284715494e+02  1.2437171285e+02  4.8000000000e+00 0. 9.
      -24     2     4     0     0     0 -5.7783139371e+01  1.3298292275e+02 -1.9812051607e+02  2.5798422914e+02  7.9251338546e+01  8.074008e-14 9.
       -5     1     4     0     0   103  3.0313287541e+01  2.9718676759e+01  1.1850997420e+01  4.4334876674e+01  4.8000000000e+00 0. 9.
       -3     1     5     0     0   104 -2.2319996413e+01 -1.1564124460e+01  3.2545685200e+01  4.1126425076e+01  5.0000000000e-01 0. 9.
        4     1     5     0   104     0  4.2654411710e+01 -1.6854279111e+02  2.4706573352e+02  3.0210891736e+02  1.5000000000e+00 0. 9.
        3     1     7     0   105     0  1.9298419399e+01  2.3421793173e+01 -2.6704777718e+01  4.0427769414e+01  5.0000000000e-01 0. 9.
       -4     1     7     0     0   105 -7.7081558771e+01  1.0956112958e+02 -1.7141573835e+02  2.1755645973e+02  1.5000000000e+00 0. 9.
#pdf   21   21  7.585502e-02  4.259516e-02  2.380829e+02  1.154245e+00  2.231756e+00
</event>
<event>
    12  9999  1.000000e+00  2.207068e+02  7.896630e-03  1.044861e-01
        1    -1     0     0   101     0  0.0000000000e+00  0.0000000000e+00  1.2524406841e+03  1.2524406841e+03  0.0000000000e+00 0. 9.
       -1    -1     0     0     0   102  0.0000000000e+00  0.0000000000e+00 -3.9907141306e+01  3.9907141306e+01  0.0000000000e+00 0. 9.
        6     2     1     2   101     0 -1.3850151324e+02  9.1970034953e+00  5.0323618258e+02  5.4950197781e+02  1.7157655466e+02  3.257842e-14 9.
       -6     2     1     2     0   102  1.3850151324e+02 -9.1970034953e+00  7.0929736023e+02  7.4284584762e+02  1.7160988916e+02  9.983086e-14 9.
       24     2     3     0     0     0 -1.6394472779e+01  1.7071098435e+01  3.0824112820e+02  3.1924507360e+02  7.9653140330e+01  3.598181e-14 9.
        5     1     3     0   101     0 -1.2210704046e+02 -7.8740949394e+00  1.9499505439e+02  2.3025690421e+02  4.8000000000e+00 0. 9.
      -24     2     4     0     0     0  5.8907610674e+01 -1.9088523897e+00  5.7387920815e+02  5.8552635619e+02  1.0014997720e+02  2.089031e-13 9.
       -5     1     4     0     0   102  7.9593902562e+01 -7.2881511056e+00  1.3541815209e+02  1.5731949144e+02  4.8000000000e+00 0. 9.
      -11     1     5     0     0     0 -4.6390140063e+01  2.3629256254e+01  2.0730287874e+02  2.1374019365e+02  5.1100000000e-04 0. 9.
       12     1     5     0     0     0  2.9995667285e+01 -6.5581578189e+00  1.0093824946e+02  1.0550487995e+02  0.0000000000e+00 0. 9.
       11     1     7     0     0     0 -1.5326776272e+01 -3.2373553142e+01  1.9088976178e+02  1.9422115787e+02  5.1100000000e-04 0. 9.
      -12     1     7     0     0     0  7.4234386946e+01  3.0464700752e+01  3.8298944637e+02  3.9130519831e+02  0.0000000000e+00 0. 9.
#pdf    1   -1  1.926832e-01  6.139560e-03  2.206938e+02  2.269569e-01  7.090194e-01
</event>
<event>
    12  9999  1.000000e+00  1.836946e+02  7.880068e-03  1.068379e-01
       21    -1     0     0   101   102  0.0000000000e+00  0.0000000000e+00  7.1362892699e+01  7.1362892699e+01  0.0000000000e+00 0. 9.
       21    -1     0     0   102   103  0.0000000000e+00  0.0000000000e+00 -5.7679200758e+02  5.7679200758e+02  0.0000000000e+00 0. 9.
        6     2     1     2   101     0  4.6338199276e+01 -1.1084170431e+00 -1.2510655729e+02  2.2921019933e+02  1.8637920351e+02  8.887145e-13 9.
       -6     2     1     2     0   103 -4.6338199276e+01  1.1084170431e+00 -3.8032255760e+02  4.1894470094e+02  1.6947258578e+02  6.008970e-15 9.
       24     2     3     0     0     0  3.4273016711e+01  1.4532183615e+00 -1.6561722283e+02  1.8659230838e+02  7.8809095483e+01  1.517633e-13 9.
        5     1     3     0   101     0  1.2065182565e+01 -2.5616354046e+00  4.0510665546e+01  4.2617890953e+01  4.8000000000e+00 0. 9.
      -24     2     4     0     0     0  1.5173568543e+01 -4.1523644189e+01 -2.7517856851e+02  2.8979560623e+02  7.9396464737e+01  2.747400e-15 9.
       -5     1     4     0     0   103 -6.1511767818e+01  4.2632061232e+01 -1.0514398908e+02  1.2914909471e+02  4.8000000000e+00 0. 9.
      -13     1     5     0     0     0  4.5326798715e+01 -7.1923515599e-01 -3.9958206825e+01  6.0429342522e+01  1.0566000000e-01  1.264430e+05 9.
       14     1     5     0     0     0 -1.1053782004e+01  2.1724535175e+00 -1.2565901601e+02  1.2616296586e+02  0.0000000000e+00 0. 9.
        1     1     7     0   104     0 -2.9629439239e+01 -7.7812112326e+00 -5.9256882664e+01  6.6707855317e+01  3.3000000000e-01 0. 9.
       -2     1     7     0     0   104  4.4803007782e+01 -3.3742432957e+01 -2.1592168585e+02  2.2308775091e+02  3.3000000000e-01 0. 9.
#pdf   21   21  1.097891e-02  8.873723e-02  1.756969e+02  7.542733e+00  9.716422e-01
</event>
<event>
    12  9999  1.000000e+00  2.022955e+02  7.888762e-03  1.055889e-01
       21    -1     0     0   101   102  0.0000000000e+00  0.0000000000e+00  8.7807657204e+01  8.7807657204e+01  0.0000000000e+00 0. 9.
       21    -1     0     0   103   101  0.0000000000e+00  0.0000000000e+00 -4.6714877983e+02  4.6714877983e+02  0.0000000000e+00 0. 9.
        6     2     1     2   103     0  8.7347579106e+01 -6.4865259812e+01 -2.0388046318e+02  2.8786397650e+02  1.7164301382e+02  3.179983e-13 9.
       -6     2     1     2     0   102 -8.7347579106e+01  6.4865259812e+01 -1.7546065945e+02  2.6709246054e+02  1.6945453064e+02  3.786253e-15 9.
       24     2     3     0     0     0  7.6623905773e+00 -8.1952232484e+01 -1.4861642892e+02  1.8927976179e+02  8.3457202457e+01  1.098732e-14 9.
        5     1     3     0   103     0  7.9685188529e+01  1.7086972672e+01 -5.5264034265e+01  9.8584214706e+01  4.8000000000e+00 0. 9.
      -24     2     4     0     0     0 -6.0140653029e+01  5.1821144875e+01 -1.9916129421e+02  2.2842560329e+02  7.8808032103e+01  7.445729e-15 9.
       -5     1     4     0     0   102 -2.7206926077e+01  1.3044114938e+01  2.3700634764e+01  3.8666857246e+01  4.8000000000e+00 0. 9.
       -1     1     5     0     0   104  6.2698937994e+00 -8.1028825335e+00  9.9925058126e+00  1.4315283651e+01  3.3000000000e-01 0. 9.
        2     1     5     0   104     0  1.3924967780e+00 -7.3849349951e+01 -1.5860893473e+02  1.7496447814e+02  3.3000000000e-01 0. 9.
        1     1     7     0   105     0 -7.5762652290e+00  2.3312119783e+01 -4.6784172041e+00  2.4956987221e+01  3.3000000000e-01 0. 9.
       -2     1     7     0     0   105 -5.2564387800e+01  2.8509025092e+01 -1.9448287701e+02  2.0346861607e+02  3.3000000000e-01 0. 9.
#pdf   21   21  1.350887e-02  7.186904e-02  2.013751e+02  6.407077e+00  1.251738e+00
</event>
<event>
    12  9999  1.000000e+00  1.942115e+02  7.885084e-03  1.061134e-01
       21    -1     0     0   101   102  0.0000000000e+00  0.0000000000e+00  2.4253670911e+02  2.4253670911e+02  0.0000000000e+00 0. 9.
       21    -1     0     0   103   101  0.0000000000e+00  0.0000000000e+00 -3.1065186062e+02  3.1065186062e+02  0.0000000000e+00 0. 9.
        6     2     1     2   103     0  3.7446696646e+01 -8.1973616207e+01 -2.2945457122e+02  3.0014528198e+02  1.7121875247e+02  1.358315e-13 9.
       -6     2     1     2     0   102 -3.7446696646e+01  8.1973616207e+01  1.6133941972e+02  2.5304328775e+02  1.7285418212e+02  1.126851e-13 9.
       24     2     3     0     0     0  3.1223017806e+01 -1.0415969703e+02 -9.8982005151e+01  1.6756667564e+02  8.0355672587e+01  2.093584e-13 9.
        5     1     3     0   103     0  6.2236788399e+00  2.2186080822e+01 -1.3047256607e+02  1.3257860633e+02  4.8000000000e+00 0. 9.
      -24     2     4     0     0     0  1.2115517911e+01 -5.3983672187e+00  1.1701307836e+02  1.4314269112e+02  8.1374697379e+01  5.825881e-14 9.
       -5     1     4     0     0   102 -4.9562214556e+01  8.7371983426e+01  4.4326341361e+01  1.0990059662e+02  4.8000000000e+00 0. 9.
      -11     1     5     0     0     0  6.1759969705e+00 -1.0727015464e+01  1.4095997711e+01  1.8759236421e+01  5.1100000000e-04 0. 9.
       12     1     5     0     0     0  2.5047020835e+01 -9.3432681564e+01 -1.1307800286e+02  1.4880743922e+02  0.0000000000e+00 0. 9.
       11     1     7     0     0     0 -1.4974988701e+01 -3.7408101649e+01  5.2124273844e+01  6.5882898234e+01  5.1100000000e-04 0. 9.
      -12     1     7     0     0     0  2.7090506611e+01  3.2009734431e+01  6.4888804511e+01  7.7259792891e+01  0.0000000000e+00 0. 9.
#pdf   21   21  3.731334e-02  4.779259e-02  1.934885e+02  2.584293e+00  1.999818e+00
</event>
<event>
    12  9999  1.000000e+00  1.807689e+02  7.878623e-03  1.070487e-01
       21    -1     0     0   101   102  0.0000000000e+00  0.0000000000e+00  3.4143600205e+02  3.4143600205e+02  0.0000000000e+00 0. 9.
       21    -1     0     0   102   103  0.0000000000e+00  0.0000000000e+00 -1.1560439245e+02  1.1560439245e+02  0.0000000000e+00 0. 9.
        6     2     1     2   101     0  5.7496276782e+01  1.0710982835e+00  2.0802254709e+02  2.7597413896e+02  1.7199237244e+02  4.888882e-14 9.
       -6     2     1     2     0   103 -5.7496276782e+01 -1.0710982835e+00  1.7809062505e+01  1.8106625555e+02  1.7076550323e+02  2.060591e-13 9.
       24     2     3     0     0     0  8.7452671225e+00 -5.8321842299e+01  7.8108325350e+01  1.2496113506e+02  7.7694644610e+01  2.253781e-14 9.
        5     1     3     0   101     0  4.8751009659e+01  5.9392940582e+01  1.2991422174e+02  1.5101300389e+02  4.8000000000e+00 0. 9.
      -24     2     4     0     0     0 -4.5570945575e+01  1.6290594990e+01  7.1684527200e+01  1.2302103512e+02  8.7483764651e+01  1.864498e-14 9.
       -5     1     4     0     0   103 -1.1925331207e+01 -1.7361693274e+01 -5.3875464695e+01  5.8045220422e+01  4.8000000000e+00 0. 9.
       -3     1     5     0     0   104 -2.0018225183e+01 -3.4938329818e+01  7.8089626738e+01  8.7861573137e+01  5.0000000000e-01 0. 9.
        4     1     5     0   104     0  2.8763492305e+01 -2.3383512480e+01  1.8698612425e-02  3.7099561927e+01  1.5000000000e+00 0. 9.
        3     1     7     0   105     0  2.9926238590e+00 -1.0051574528e+01 -1.6139272629e+01  1.9253988393e+01  5.0000000000e-01 0. 9.
       -4     1     7     0     0   105 -4.8563569434e+01  2.6342169518e+01  8.7823799829e+01  1.0376704673e+02  1.5000000000e+00 0. 9.
#pdf   21   21  5.252862e-02  1.778529e-02  1.801883e+02  1.812960e+00  5.109157e+00
</event>
<event>
    12  9999  1.000000e+00  2.052473e+02  7.890070e-03  1.054039e-01
       21    -1     0     0   101   102  0.0000000000e+00  0.0000000000e+00  4.3150453315e+02  4.3150453315e+02  0.0000000000e+00 0. 9.
       21    -1     0     0   102   103  0.0000000000e+00  0.0000000000e+00 -2.7034089806e+02  2.7034089806e+02  0.0000000000e+00 0. 9.
        6     2     1     2   101     0  7.9303973396e+01  8.1667141697e+01  3.6104506758e+02  4.1520996290e+02  1.7054949498e+02  1.156984e-13 9.
       -6     2     1     2     0   103 -7.9303973396e+01 -8.1667141697e+01 -1.9988143250e+02  2.8663546831e+02  1.7102240324e+02  4.563158e-14 9.
       24     2     3     0     0     0 -7.5332552535e+00  6.3262469093e+01  2.6899078047e+02  2.8723938804e+02  7.8048293622e+01  1.518757e-13 9.
        5     1     3     0   101     0  8.6837228650e+01  1.8404672604e+01  9.2054287111e+01  1.2797057486e+02  4.8000000000e+00 0. 9.
      -24     2     4     0     0     0 -1.0964933205e+02 -9.9544622936e+01 -1.5366826800e+02  2.2833330969e+02  8.1179158334e+01  2.788942e-14 9.
       -5     1     4     0     0   103  3.0345358657e+01  1.7877481239e+01 -4.6213164493e+01  5.8302158622e+01  4.8000000000e+00 0. 9.
      -13     1     5     0     0     0  2.2408706518e+01  1.9314311061e+01  2.8998904613e+01  4.1426324630e+01  1.0566000000e-01  4.837578e+04 9.
       14     1     5     0     0     0 -2.9941961771e+01  4.3948158032e+01  2.3999187585e+02  2.4581306341e+02  0.0000000000e+00 0. 9.
        1     1     7     0   104     0 -1.4922760820e+01  1.2227918925e+00  6.8363791977e+00  1.6462958149e+01  3.3000000000e-01 0. 9.
       -2     1     7     0     0   104 -9.4726571234e+01 -1.0076741483e+02 -1.6050464720e+02  2.1187035154e+02  3.3000000000e-01 0. 9.
#pdf   21   21  6.638531e-02  4.159091e-02  2.050507e+02  1.375090e+00  2.307212e+00
</event>
<event>
    12  9999  1.000000e+00  1.989966e+02  7.887279e-03  1.057997e-01
       21    -1     0     0   101   102  0.0000000000e+00  0.0000000000e+00  1.1206879555e+02  1.1206879555e+02  0.0000000000e+00 0. 9.
       21    -1     0     0   103   101  0.0000000000e+00  0.0000000000e+00 -8.7475022680e+02  8.7475022680e+02  0.0000000000e+00 0. 9.
        6     2     1     2   103     0  9.1477777869e+01 -4.2622045802e+01 -7.6220403937e+02  7.8772964308e+02  1.7140061357e+02  1.032486e-14 9.
       -6     2     1     2     0   102 -9.1477777869e+01  4.2622045802e+01 -4.7739188276e-01  1.9908937927e+02  1.7161448192e+02  4.204599e-14 9.
       24     2     3     0     0     0  2.3254884118e+01 -8.3785049625e+01 -4.3415169388e+02  4.5010538819e+02  8.0910092066e+01  5.090177e-14 9.
        5     1     3     0   103     0  6.8222893751e+01  4.1163003823e+01 -3.2805234549e+02  3.3762425490e+02  4.8000000000e+00 0. 9.
      -24     2     4     0     0     0  7.8836781152e+00 -1.8485649817e+01  8.6023848138e+00  8.1989713415e+01  7.9021772011e+01  5.112886e-14 9.
       -5     1     4     0     0   102 -9.9361455984e+01  6.1107695619e+01 -9.0797766965e+00  1.1709966586e+02  4.8000000000e+00 0. 9.
       -1     1     5     0     0   104 -2.8264679818e+01 -4.5102302079e+01 -1.6611382515e+02  1.7443343024e+02  3.3000000000e-01 0. 9.
        2     1     5     0   104     0  5.1519563936e+01 -3.8682747546e+01 -2.6803786873e+02  2.7567195795e+02  3.3000000000e-01 0. 9.
        3     1     7     0   105     0 -3.2111531272e+01 -8.6962050571e+00 -1.2690360134e+01  3.5609965787e+01  5.0000000000e-01 0. 9.
       -4     1     7     0     0   105  3.9995209387e+01 -9.7894447597e+00  2.1292744948e+01  4.6379747628e+01  1.5000000000e+00 0. 9.
#pdf   21   21  1.724135e-02  1.345770e-01  1.989045e+02  5.239181e+00  5.308056e-01
</event>
<event>
    12  9999  1.000000e+00  2.085198e+02  7.891498e-03  1.052026e-01
       21    -1     0     0   101   102  0.0000000000e+00  0.0000000000e+00  2.9604598196e+02  2.9604598196e+02  0.0000000000e+00 0. 9.
       21    -1     0     0   103   101  0.0000000000e+00  0.0000000000e+00 -4.2188982667e+02  4.2188982667e+02  0.0000000000e+00 0. 9.
        6     2     1     2   103     0 -5.8674833453e+01 -1.0383206973e+02 -3.5268497184e+02  4.0941643583e+02  1.7032702011e+02  1.775009e-13 9.
       -6     2     1     2     0   102  5.8674833453e+01  1.0383206973e+02  2.2684112713e+02  3.0851937280e+02  1.7176574645e+02  1.191565e-13 9.
       24     2     3     0     0     0 -8.8508248199e+01 -1.8153885280e+01 -2.1366960487e+02  2.4334688359e+02  7.3482869830e+01  7.090754e-14 9.
        5     1     3     0   103     0  2.9833414746e+01 -8.5678184449e+01 -1.3901536697e+02  1.6606955224e+02  4.8000000000e+00 0. 9.
      -24     2     4     0     0     0  6.2287692141e+01  9.7050849812e+01  8.0684410669e+01  1.6208213895e+02  8.0386700400e+01  2.524526e-15 9.
       -5     1     4     0     0   102 -3.6128586879e+00  6.7812199172e+00  1.4615671646e+02  1.4643723385e+02  4.8000000000e+00 0. 9.
      -11     1     5     0     0     0 -2.0687936402e+01 -5.5362602451e+00 -2.9442083517e+00  2.1617336865e+01  5.1100000000e-04 0. 9.
       12     1     5     0     0     0 -6.7820311797e+01 -1.2617625035e+01 -2.1072539652e+02  2.2172954672e+02  0.0000000000e+00 0. 9.
        3     1     7     0   104     0 -1.6497703730e+01  2.1494096468e+00  1.4615737356e+01  2.2150936067e+01  5.0000000000e-01 0. 9.
       -4     1     7     0     0   104  7.8785395871e+01  9.4901440165e+01  6.6068673313e+01  1.3993120289e+02  1.5000000000e+00 0. 9.
#pdf   21   21  4.554554e-02  6.490613e-02  2.079306e+02  2.096102e+00  1.410714e+00
</event>
<event>
    12  9999  1.000000e+00  1.803909e+02  7.878434e-03  1.070762e-01
       21    -1     0     0   101   102  0.0000000000e+00  0.0000000000e+00  1.0677153766e+02  1.0677153766e+02  0.0000000000e+00 0. 9.
       21    -1     0     0   103   101  0.0000000000e+00  0.0000000000e+00 -3.1171858500e+02  3.1171858500e+02  0.0000000000e+00 0. 9.
        6     2     1     2   103     0 -5.2240747906e+01 -2.4302558749e+01 -1.3386114545e+02  2.2485023478e+02  1.7122824451e+02  2.177659e-14 9.
       -6     2     1     2     0   102  5.2240747906e+01  2.4302558749e+01 -7.1085901894e+01  1.9363988787e+02  1.7065605944e+02  2.907168e-14 9.
       24     2     3     0     0     0 -6.4618510851e+00 -7.3383158885e+01 -6.5846590276e+01  1.2917561736e+02  8.3208912639e+01  2.788291e-13 9.
        5     1     3     0   103     0 -4.5778896821e+01  4.9080600136e+01 -6.8014555169e+01  9.5674617421e+01  4.8000000000e+00 0. 9.
      -24     2     4     0     0     0  9.6032700994e+01  2.6634427490e+01 -7.5846064043e+01  1.4926791574e+02  8.1219534906e+01  4.246138e-13 9.
       -5     1     4     0     0   102 -4.3791953088e+01 -2.3318687405e+00  4.7601621493e+00  4.4371972131e+01  4.8000000000e+00 0. 9.
      -13     1     5     0     0     0  2.7900784785e+01 -4.5842737255e+01 -6.6094087303e+01  8.5137828790e+01  1.0566000000e-01  1.635878e+05 9.
       14     1     5     0     0     0 -3.4362635870e+01 -2.7540421630e+01  2.4749702720e-01  4.4037788572e+01  0.0000000000e+00 0. 9.
        1     1     7     0   104     0  1.2776973532e+01 -2.6755780923e+01 -1.8095132542e+01  3.4737092382e+01  3.3000000000e-01 0. 9.
       -2     1     7     0     0   104  8.3255727462e+01  5.3390208413e+01 -5.7750931501e+01  1.1453082336e+02  3.3000000000e-01 0. 9.
#pdf   21   21  1.642639e-02  4.795671e-02  1.801200e+02  5.460924e+00  2.000871e+00
</event>
<event>
    12  9999  1.000000e+00  1.926456e+02  7.884354e-03  1.062181e-01
       21    -1     0     0   101   102  0.0000000000e+00  0.0000000000e+00  4.5818287750e+01  4.5818287750e+01  0.0000000000e+00 0. 9.
       21    -1     0     0   103   101  0.0000000000e+00  0.0000000000e+00 -8.1213704488e+02  8.1213704488e+02  0.0000000000e+00 0. 9.
        6     2     1     2   103     0  3.2202568929e+01 -8.3446166120e+01 -4.0379289488e+02  4.4709677365e+02  1.6984273599e+02  1.775376e-14 9.
       -6     2     1     2     0   102 -3.2202568929e+01  8.3446166120e+01 -3.6252586224e+02  4.1085855897e+02  1.7140445327e+02  1.750472e-13 9.
       24     2     3     0     0     0 -2.1151462700e+01 -5.8848228707e+01 -3.5975309367e+02  3.7351515022e+02  7.8617940988e+01  1.940143e-14 9.
        5     1     3     0   103     0  5.3354031629e+01 -2.4597937414e+01 -4.4039801217e+01  7.3581623435e+01  4.8000000000e+00 0. 9.
      -24     2     4     0     0     0 -4.5140200705e+01  2.8231469154e+01 -9.0242864412e+01  1.3269113459e+02  8.1415656063e+01  8.155850e-14 9.
       -5     1     4     0     0   102  1.2937631776e+01  5.5214696966e+01 -2.7228299783e+02  2.7816742438e+02  4.8000000000e+00 0. 9.
      -13     1     5     0     0     0  1.2099903153e+01  1.4366054352e+01 -4.7614676607e+01  5.1185542552e+01  1.0566000000e-01  2.334885e+05 9.
       14     1     5     0     0     0 -3.3251365853e+01 -7.3214283059e+01 -3.1213841706e+02  3.2232960767e+02  0.0000000000e+00 0. 9.
        3     1     7     0   104     0 -3.5844090469e+01  2.3836611961e+00 -9.7777025343e+01  1.0416850458e+02  5.0000000000e-01 0. 9.
       -4     1     7     0     0   104 -9.2961102366e+00  2.5847807958e+01  7.5341609310e+00  2.8522630011e+01  1.5000000000e+00 0. 9.
#pdf   21   21  7.048967e-03  1.249442e-01  1.919553e+02  1.053440e+01  5.971530e-01
</event>
<event>
    12  9999  1.000000e+00  2.348469e+02  7.902249e-03  1.037141e-01
       21    -1     0     0   101   102  0.0000000000e+00  0.0000000000e+00  5.9345627109e+02  5.9345627109e+02  0.0000000000e+00 0. 9.
       21    -1     0     0   102   103  0.0000000000e+00  0.0000000000e+00 -1.4103266554e+02  1.4103266554e+02  0.0000000000e+00 0. 9.
        6     2     1     2   101     0  6.8185521489e+00 -1.6190380127e+02  4.4151415232e+02  5.0071728152e+02  1.7182466584e+02  2.304845e-14 9.
       -6     2     1     2     0   103 -6.8185521489e+00  1.6190380127e+02  1.0909453235e+01  2.3377165511e+02  1.6813933819e+02  2.416581e-14 9.
       24     2     3     0     0     0  1.0245159532e+01 -1.6417073942e+01  1.0325222455e+02  1.3244794904e+02  8.0665691086e+01  3.820002e-13 9.
        5     1     3     0   101     0 -3.4266073829e+00 -1.4548672732e+02  3.3826192777e+02  3.6826933248e+02  4.8000000000e+00 0. 9.
      -24     2     4     0     0     0  2.4221267935e+01  9.8372736193e+01 -2.5041588454e+01  1.5430352277e+02  1.1366015546e+02  1.124419e-13 9.
       -5     1     4     0     0   103 -3.1039820084e+01  6.3531065074e+01  3.5951041689e+01  7.9468132348e+01  4.8000000000e+00 0. 9.
       -3     1     5     0     0   104 -2.4137399287e+01  9.2589892839e-01  2.1571467487e+00  2.4256434513e+01  5.0000000000e-01 0. 9.
        4     1     5     0   104     0  3.4382558819e+01 -1.7342972870e+01  1.0109507780e+02  1.0819151452e+02  1.5000000000e+00 0. 9.
        1     1     7     0   105     0  4.6625225637e+01  1.1495454420e+02 -2.4363441417e+01  1.2642050892e+02  3.3000000000e-01 0. 9.
       -2     1     7     0     0   105 -2.2403957702e+01 -1.6581808010e+01 -6.7814703698e-01  2.7883013843e+01  3.3000000000e-01 0. 9.
#pdf   21   21  9.130096e-02  2.169733e-02  2.335170e+02  9.102259e-01  4.279047e+00
</event>
<event>
    12  9999  1.000000e+00  2.332034e+02  7.901613e-03  1.038009e-01
       21    -1     0     0   101   102  0.0000000000e+00  0.0000000000e+00  3.0053411273e+02  3.0053411273e+02  0.0000000000e+00 0. 9.
       21    -1     0     0   102   103  0.0000000000e+00  0.0000000000e+00 -3.5903701657e+02  3.5903701657e+02  0.0000000000e+00 0. 9.
        6     2     1     2   101     0  1.4657317998e+02  5.7012695672e+01  2.0304270760e+02  3.0875622471e+02  1.7137654632e+02  7.180498e-13 9.
       -6     2     1     2     0   103 -1.4657317998e+02 -5.7012695672e+01 -2.6154561144e+02  3.5081490460e+02  1.7300533479e+02  7.307745e-15 9.
       24     2     3     0     0     0  4.3598288187e+01  1.2791020280e+01  3.9156339992e+01  1.1015822270e+02  9.2396937904e+01  1.101341e-13 9.
        5     1     3     0   101     0  1.0297489179e+02  4.4221675392e+01  1.6388636761e+02  1.9859800201e+02  4.8000000000e+00 0. 9.
      -24     2     4     0     0     0 -4.7576428383e+01  3.2413459910e+01 -9.2421677703e+01  1.3535414461e+02  8.0404160551e+01  2.185886e-13 9.
       -5     1     4     0     0   103 -9.8996751597e+01 -8.9426155583e+01 -1.6912393374e+02  2.1546075998e+02  4.8000000000e+00 0. 9.
       -1     1     5     0     0   104  6.3762035560e+01 -1.4868932144e+01  3.8431672864e+01  7.5919593657e+01  3.3000000000e-01 0. 9.
        2     1     5     0   104     0 -2.0163747374e+01  2.7659952424e+01  7.2466712823e-01  3.4238629043e+01  3.3000000000e-01 0. 9.
       15     1     7     0     0     0  2.1216262577e+01  1.6243715854e+01 -3.6318832388e+01  4.5124303626e+01  1.7768200000e+00  1.304425e-01 9.
      -16     1     7     0     0     0 -6.8792690960e+01  1.6169744057e+01 -5.6102845315e+01  9.0229840989e+01  0.0000000000e+00 0. 9.
#pdf   21   21  4.623602e-02  5.523646e-02  2.326028e+02  2.048734e+00  1.685090e+00
</event>
<event>
    12  9999  1.000000e+00  2.225785e+02  7.897394e-03  1.043805e-01
       21    -1     0     0   101   102  0.0000000000e+00  0.0000000000e+00  2.5246063499e+02  2.5246063499e+02  0.0000000000e+00 0. 9.
       21    -1     0     0   103   101  0.0000000000e+00  0.0000000000e+00 -3.8963974267e+02  3.8963974267e+02  0.0000000000e+00 0. 9.
        6     2     1     2   103     0  1.2388482222e+02 -6.8879373436e+01 -2.9466808814e+02  3.6885223322e+02  1.7067768021e+02  2.187279e-14 9.
       -6     2     1     2     0   102 -1.2388482222e+02  6.8879373436e+01  1.5748898046e+02  2.7324814444e+02  1.7253971198e+02  9.592062e-15 9.
       24     2     3     0     0     0  1.4738988535e+02 -3.3711331240e+01 -2.6740878461e+02  3.1830137948e+02  8.3355131400e+01  5.562441e-13 9.
        5     1     3     0   103     0 -2.3505063138e+01 -3.5168042195e+01 -2.7259303524e+01  5.0550853738e+01  4.8000000000e+00 0. 9.
      -24     2     4     0     0     0 -4.8826244365e+01  7.5373636845e+01  2.9152024121e+01  1.2435428987e+02  8.0925654942e+01  9.060235e-14 9.
       -5     1     4     0     0   102 -7.5058577850e+01 -6.4942634094e+00  1.2833695634e+02  1.4889385457e+02  4.8000000000e+00 0. 9.
      -11     1     5     0     0     0  1.2427730203e+02 -3.8733481727e+01 -1.5032953932e+02  1.9885698579e+02  5.1100000000e-04 0. 9.
       12     1     5     0     0     0  2.3112583319e+01  5.0221504866e+00 -1.1707924530e+02  1.1944439369e+02  0.0000000000e+00 0. 9.
        1     1     7     0   104     0 -5.4985714346e+01  8.6682803627e+01  3.7177397439e+01  1.0917694357e+02  3.3000000000e-01 0. 9.
       -2     1     7     0     0   104  6.1594699808e+00 -1.1309166782e+01 -8.0253733181e+00  1.5177346298e+01  3.3000000000e-01 0. 9.
#pdf   21   21  3.884010e-02  5.994458e-02  2.218619e+02  2.464680e+00  1.540244e+00
</event>
<event>
    12  9999  1.000000e+00  1.836387e+02  7.880041e-03  1.068419e-01
       -2    -1     0     0     0   101  0.0000000000e+00  0.0000000000e+00  1.4410890725e+01  1.4410890725e+01  0.0000000000e+00 0. 9.
        2    -1     0     0   102     0  0.0000000000e+00  0.0000000000e+00 -2.4239324034e+03  2.4239324034e+03  0.0000000000e+00 0. 9.
       -6     2     1     2     0   101  4.5486971112e+01 -4.6917877121e+01 -1.4348958920e+03  1.4466687483e+03  1.7220306254e+02  3.799617e-14 9.
        6     2     1     2   102     0 -4.5486971112e+01  4.6917877121e+01 -9.7462562072e+02  9.9167454585e+02  1.7103494552e+02  7.660254e-15 9.
      -24     2     3     0     0     0 -3.8299148812e+01 -2.3391746703e+01 -8.0460033227e+02  8.1037547842e+02  8.5514459128e+01  2.190472e-13 9.
       -5     1     3     0     0   101  8.3786119925e+01 -2.3526130418e+01 -6.3029555970e+02  6.3629326987e+02  4.8000000000e+00 0. 9.
       24     2     4     0     0     0 -5.0269065636e+01  9.3116305291e+01 -7.9927370140e+02  8.1021243189e+02  8.0050670021e+01  1.295165e-13 9.
        5     1     4     0   102     0  4.7820945240e+00 -4.6198428169e+01 -1.7535191932e+02  1.8146211396e+02  4.8000000000e+00 0. 9.
       11     1     5     0     0     0 -3.8984272828e+01 -2.0669159372e+00 -1.3751448631e+02  1.4294852086e+02  5.1100000000e-04 0. 9.
      -12     1     5     0     0     0  6.8512401530e-01 -2.1324830766e+01 -6.6708584596e+02  6.6742695756e+02  0.0000000000e+00 0. 9.
      -15     1     7     0     0     0  1.2612882005e+01 -6.8943811317e+00 -9.5597350531e+01  9.6688302299e+01  1.7768200000e+00  2.820111e-01 9.
       16     1     7     0     0     0 -6.2881947641e+01  1.0001068642e+02 -7.0367635087e+02  7.1352412959e+02  0.0000000000e+00 0. 9.
#pdf   -2    2  2.217060e-03  3.729127e-01  1.830937e+02  1.125877e+00  2.162632e-01
</event>
<event>
    12  9999  1.000000e+00  3.229454e+02  7.931198e-03  9.992884e-02
       21    -1     0     0   101   102  0.0000000000e+00  0.0000000000e+00  5.3723164764e+02  5.3723164764e+02  0.0000000000e+00 0. 9.
       21    -1     0     0   103   101  0.0000000000e+00  0.0000000000e+00 -2.2989505045e+02  2.2989505045e+02  0.0000000000e+00 0. 9.
        6     2     1     2   103     0  2.5922975222e+02  8.7967443115e+01  2.4512192625e+00  3.2311903521e+02  1.7164372098e+02  1.134651e-14 9.
       -6     2     1     2     0   102 -2.5922975222e+02 -8.7967443115e+01  3.0488537793e+02  4.4400766288e+02  1.7102448812e+02  5.751292e-14 9.
       24     2     3     0     0     0  1.2902668368e+02  1.0003162109e+02 -3.5266498459e+01  1.8694249656e+02  8.3961662609e+01  1.572690e-14 9.
        5     1     3     0   103     0  1.3020306854e+02 -1.2064177973e+01  3.7717717721e+01  1.3617653865e+02  4.8000000000e+00 0. 9.
      -24     2     4     0     0     0 -1.2127152933e+02 -3.0008741047e+00  7.8510912500e+01  1.6558311707e+02  8.0858000253e+01  5.778750e-14 9.
       -5     1     4     0     0   102 -1.3795822289e+02 -8.4966569010e+01  2.2637446543e+02  2.7842454581e+02  4.8000000000e+00 0. 9.
       -1     1     5     0     0   104  4.8693916207e+01  4.4806673802e+01 -5.6685408659e+01  8.7132542415e+01  3.3000000000e-01 0. 9.
        2     1     5     0   104     0  8.0332767472e+01  5.5224947285e+01  2.1418910200e+01  9.9809954146e+01  3.3000000000e-01 0. 9.
        1     1     7     0   105     0 -1.1493466062e+02 -2.9355336412e+01  6.2126125030e+01  1.3390846239e+02  3.3000000000e-01 0. 9.
       -2     1     7     0     0   105 -6.3368687061e+00  2.6354462307e+01  1.6384787470e+01  3.1674654677e+01  3.3000000000e-01 0. 9.
#pdf   21   21  8.265102e-02  3.536847e-02  3.227812e+02  1.006736e+00  2.660303e+00
</event>
<event>
    12  9999  1.000000e+00  2.372094e+02  7.903155e-03  1.035908e-01
       21    -1     0     0   101   102  0.0000000000e+00  0.0000000000e+00  1.1779637066e+03  1.1779637066e+03  0.0000000000e+00 0. 9.
       21    -1     0     0   102   103  0.0000000000e+00  0.0000000000e+00 -7.9114641985e+01  7.9114641985e+01  0.0000000000e+00 0. 9.
        6     2     1     2   101     0 -3.3416449109e+01  1.6060220937e+02  9.4566774069e+02  9.7506937642e+02  1.7193918787e+02  2.323872e-13 9.
       -6     2     1     2     0   103  3.3416449109e+01 -1.6060220937e+02  1.5318132391e+02  2.8200897215e+02  1.7074780717e+02  2.063169e-14 9.
       24     2     3     0     0     0 -6.8394031454e+01  6.0171832322e+01  6.4190412680e+02  6.5319196959e+02  7.9501246521e+01  1.812885e-13 9.
        5     1     3     0   101     0  3.4977582344e+01  1.0043037705e+02  3.0376361390e+02  3.2187740683e+02  4.8000000000e+00 0. 9.
      -24     2     4     0     0     0 -2.5285929137e+01 -1.0411075347e+02  3.3969867782e+01  1.3753868083e+02  7.9274898978e+01  2.608545e-14 9.
       -5     1     4     0     0   103  5.8702378246e+01 -5.6491455902e+01  1.1921145613e+02  1.4447029132e+02  4.8000000000e+00 0. 9.
       -3     1     5     0     0   104 -5.1123808282e+01  4.4718383495e+01  6.0978676609e+02  6.1355808828e+02  5.0000000000e-01 0. 9.
        4     1     5     0   104     0 -1.7270223172e+01  1.5453448828e+01  3.2117360702e+01  3.9633881308e+01  1.5000000000e+00 0. 9.
        3     1     7     0   105     0 -1.6237651513e+01  4.6212012922e+00 -1.0299436148e+01  1.9782447094e+01  5.0000000000e-01 0. 9.
       -4     1     7     0     0   105 -9.0482776236e+00 -1.0873195476e+02  4.4269303929e+01  1.1775623374e+02  1.5000000000e+00 0. 9.
#pdf   21   21  1.812252e-01  1.217148e-02  2.367795e+02  3.129302e-01  6.964329e+00
</event>
<event>
    12  9999  1.000000e+00  1.924624e+02  7.884268e-03  1.062304e-01
       21    -1     0     0   101   102  0.0000000000e+00  0.0000000000e+00  2.1689517348e+02  2.1689517348e+02  0.0000000000e+00 0. 9.
       21    -1     0     0   103   101  0.0000000000e+00  0.0000000000e+00 -4.2647398365e+02  4.2647398365e+02  0.0000000000e+00 0. 9.
        6     2     1     2   103     0 -2.6522144997e+01  8.4368541613e+01 -3.5404970734e+02  4.0337729417e+02  1.7187370711e+02  3.864408e-14 9.
       -6     2     1     2     0   102  2.6522144997e+01 -8.4368541613e+01  1.4447089717e+02  2.3999186295e+02  1.7000817382e+02  3.977849e-13 9.
       24     2     3     0     0     0  8.9505830709e+00  1.6150195678e+01 -6.7116959255e+01  1.0628219310e+02  8.0313613991e+01  5.192545e-14 9.
        5     1     3     0   103     0 -3.5472728068e+01  6.8218345936e+01 -2.8693274809e+02  2.9709510108e+02  4.8000000000e+00 0. 9.
      -24     2     4     0     0     0 -1.8083365651e+01 -1.1151108128e+02  9.8867243991e+01  1.7050012083e+02  8.0832109388e+01  3.237634e-14 9.
       -5     1     4     0     0   102  4.4605510648e+01  2.7142539670e+01  4.5603653175e+01  6.9491742120e+01  4.8000000000e+00 0. 9.
      -13     1     5     0     0     0 -4.5257530892e+00  4.7444986315e+01 -3.2350008070e+01  5.7602459614e+01  1.0566000000e-01  1.649214e+06 9.
       14     1     5     0     0     0  1.3476336160e+01 -3.1294790637e+01 -3.4766951185e+01  4.8679733483e+01  0.0000000000e+00 0. 9.
       11     1     7     0     0     0  3.0647926123e+01 -4.5290432521e+01  5.3919468531e+01  7.6797315972e+01  5.1100000000e-04 0. 9.
      -12     1     7     0     0     0 -4.8731291774e+01 -6.6220648761e+01  4.4947775460e+01  9.3702804862e+01  0.0000000000e+00 0. 9.
#pdf   21   21  3.336849e-02  6.561138e-02  1.916357e+02  2.886818e+00  1.401752e+00
</event>
<event>
    12  9999  1.000000e+00  2.282164e+02  7.899657e-03  1.040687e-01
       21    -1     0     0   101   102  0.0000000000e+00  0.0000000000e+00  4.5423067551e+01  4.5423067551e+01  0.0000000000e+00 0. 9.
       21    -1     0     0   103   101  0.0000000000e+00  0.0000000000e+00 -2.0103209246e+03  2.0103209246e+03  0.0000000000e+00 0. 9.
        6     2     1     2   103     0  1.2961962756e+02 -7.3765255880e+01 -1.6535136183e+03  1.6690412068e+03  1.7131463185e+02  9.782654e-14 9.
       -6     2     1     2     0   102 -1.2961962756e+02  7.3765255880e+01 -3.1138423867e+02  3.8670278532e+02  1.7417330238e+02  5.155591e-14 9.
       24     2     3     0     0     0  6.6645463949e+01 -4.3138611480e+01 -5.1784227477e+02  5.3120282756e+02  8.7825194588e+01  1.223604e-13 9.
        5     1     3     0   103     0  6.2974163615e+01 -3.0626644400e+01 -1.1356713436e+03  1.1378383792e+03  4.8000000000e+00 0. 9.
      -24     2     4     0     0     0 -6.6673641900e+01  1.0242396708e+02 -1.4317864368e+02  2.0476960796e+02  8.0587994039e+01  9.363832e-14 9.
       -5     1     4     0     0   102 -6.2945985664e+01 -2.8658711200e+01 -1.6820559499e+02  1.8193317736e+02  4.8000000000e+00 0. 9.
      -11     1     5     0     0     0  2.5604222842e+01 -4.4043937298e+01 -4.4232318595e+02  4.4524739805e+02  5.1100000000e-04 0. 9.
       12     1     5     0     0     0  4.1041241107e+01  9.0532581770e-01 -7.5519088822e+01  8.5955429514e+01  0.0000000000e+00 0. 9.
       15     1     7     0     0     0 -9.3133505406e+00 -5.5109054613e+00  5.5238253874e+00  1.2279182119e+01  1.7768200000e+00  2.414274e-01 9.
      -16     1     7     0     0     0 -5.7360291360e+01  1.0793487254e+02 -1.4870246907e+02  1.9249042585e+02  0.0000000000e+00 0. 9.
#pdf   21   21  6.988164e-03  3.092801e-01  2.271371e+02  1.064256e+01  8.947150e-02
</event>
<event>
    12  9999  1.000000e+00  2.211492e+02  7.896811e-03  1.044611e-01
       21    -1     0     0   101   102  0.0000000000e+00  0.0000000000e+00  1.1985110514e+03  1.1985110514e+03  0.0000000000e+00 0. 9.
       21    -1     0     0   102   103  0.0000000000e+00  0.0000000000e+00 -1.0526473146e+02  1.0526473146e+02  0.0000000000e+00 0. 9.
        6     2     1     2   101     0 -1.4034390281e+02 -9.3622861082e+00  1.0564386204e+03  1.0792729773e+03  1.7024552088e+02  8.879767e-14 9.
       -6     2     1     2     0   103  1.4034390281e+02  9.3622861082e+00  3.6807699484e+01  2.2450280552e+02  1.7106326165e+02  8.354496e-14 9.
       24     2     3     0     0     0 -1.5222452832e+02  1.2285000572e+01  6.5958588284e+02  6.8162377310e+02  7.8956968997e+01  2.064006e-14 9.
        5     1     3     0   101     0  1.1880625510e+01 -2.1647286680e+01  3.9685273758e+02  3.9764920421e+02  4.8000000000e+00 0. 9.
      -24     2     4     0     0     0  1.5926436696e+02  4.1230128591e+01  3.0047411921e+01  1.8652538018e+02  8.2606346015e+01  1.678385e-13 9.
       -5     1     4     0     0   103 -1.8920464141e+01 -3.1867842483e+01  6.7602875627e+00  3.7977425344e+01  4.8000000000e+00 0. 9.
      -15     1     5     0     0     0 -8.4447545771e+01  4.6004494408e+01  3.6183569136e+02  3.7440088958e+02  1.7768200000e+00  1.006907e-01 9.
       16     1     5     0     0     0 -6.7776982553e+01 -3.3719493836e+01  2.9775019149e+02  3.0722288352e+02  0.0000000000e+00 0. 9.
       11     1     7     0     0     0  4.1170262328e+01  4.4010389093e+01  3.2303419105e+01  6.8377011739e+01  5.1100000000e-04 0. 9.
      -12     1     7     0     0     0  1.1809410463e+02 -2.7802605025e+00 -2.2560071834e+00  1.1814836844e+02  0.0000000000e+00 0. 9.
#pdf   21   21  1.843863e-01  1.619457e-02  2.208339e+02  3.064789e-01  5.515099e+00
</event>
<event>
    12  9999  1.000000e+00  2.513934e+02  7.908419e-03  1.028808e-01
       21    -1     0     0   101   102  0.0000000000e+00  0.0000000000e+00  2.2130883188e+02  2.2130883188e+02  0.0000000000e+00 0. 9.
       21    -1     0     0   103   101  0.0000000000e+00  0.0000000000e+00 -7.2087913339e+02  7.2087913339e+02  0.0000000000e+00 0. 9.
        6     2     1     2   103     0 -1.7921733871e+02  4.1995561207e+01 -6.1556093818e+02  6.6462648783e+02  1.7009002925e+02  7.888162e-14 9.
       -6     2     1     2     0   102  1.7921733871e+02 -4.1995561207e+01  1.1599063667e+02  2.7756147744e+02  1.7234867075e+02  1.560967e-13 9.
       24     2     3     0     0     0 -3.3195880180e+01  3.1829898637e+01 -3.1839856890e+02  3.3333489306e+02  8.7289136465e+01  7.341318e-14 9.
        5     1     3     0   103     0 -1.4602145853e+02  1.0165662570e+01 -2.9716236928e+02  3.3129159477e+02  4.8000000000e+00 0. 9.
      -24     2     4     0     0     0  7.3267099416e+01 -6.3226779205e+01  1.0948524079e+02  1.6920291525e+02  8.5304836399e+01  9.142244e-14 9.
       -5     1     4     0     0   102  1.0595023930e+02  2.1231217998e+01  6.5053958793e+00  1.0835856219e+02  4.8000000000e+00 0. 9.
       -3     1     5     0     0   104 -4.7991093845e+01  2.5322442766e+01 -9.5454419971e+01  1.0980058055e+02  5.0000000000e-01 0. 9.
        4     1     5     0   104     0  1.4795213665e+01  6.5074558709e+00 -2.2294414893e+02  2.2353431252e+02  1.5000000000e+00 0. 9.
       15     1     7     0     0     0 -7.5702493064e+00 -4.3979055794e+01  4.9795594327e+01  6.6889642896e+01  1.7768200000e+00  3.709969e-02 9.
      -16     1     7     0     0     0  8.0837348722e+01 -1.9247723411e+01  5.9689646459e+01  1.0231327235e+02  0.0000000000e+00 0. 9.
#pdf   21   21  3.404751e-02  1.109045e-01  2.506254e+02  2.796424e+00  6.896568e-01
</event>
<event>
    12  9999  1.000000e+00  2.050920e+02  7.890001e-03  1.054135e-01
       21    -1     0     0   101   102  0.0000000000e+00  0.0000000000e+00  1.0132199977e+02  1.0132199977e+02  0.0000000000e+00 0. 9.
       21    -1     0     0   102   103  0.0000000000e+00  0.0000000000e+00 -4.2608838588e+02  4.2608838588e+02  0.0000000000e+00 0. 9.
        6     2     1     2   101     0  4.9689372233e+01 -1.0465743261e+02 -1.2104108803e+02  2.3915929133e+02  1.7065758033e+02  2.894547e-14 9.
       -6     2     1     2     0   103 -4.9689372233e+01  1.0465743261e+02 -2.0372529808e+02  2.8825109432e+02  1.6781681794e+02  1.864677e-13 9.
       24     2     3     0     0     0  2.1194884142e+00 -1.2599783542e+02 -6.6223482856e+01  1.6335482922e+02  8.0120557834e+01  7.726409e-15 9.
        5     1     3     0   101     0  4.7569883819e+01  2.1340402806e+01 -5.4817605179e+01  7.5804462111e+01  4.8000000000e+00 0. 9.
      -24     2     4     0     0     0  1.7005329060e+01  1.0936472787e+02 -1.3959472795e+02  1.9548196241e+02  8.0477851852e+01  1.090615e-14 9.
       -5     1     4     0     0   103 -6.6694701293e+01 -4.7072952612e+00 -6.4130570129e+01  9.2769131904e+01  4.8000000000e+00 0. 9.
       -1     1     5     0     0   104 -2.9662173134e+01 -8.5903804231e+01 -6.5780112934e+01  1.1218930544e+02  3.3000000000e-01 0. 9.
        2     1     5     0   104     0  3.1781661548e+01 -4.0094031184e+01 -4.4336992211e-01  5.1165523786e+01  3.3000000000e-01 0. 9.
       13     1     7     0     0     0  4.1233073771e+01  2.4015885981e+01 -5.6128628140e+01  7.3670640102e+01  1.0566000000e-01  1.484919e+06 9.
      -14     1     7     0     0     0 -2.4227744712e+01  8.5348841890e+01 -8.3466099807e+01  1.2181132231e+02  0.0000000000e+00 0. 9.
#pdf   21   21  1.558800e-02  6.555206e-02  2.039233e+02  5.698393e+00  1.396446e+00
</event>
<event>
    12  9999  1.000000e+00  1.872748e+02  7.881806e-03  1.065855e-01
       21    -1     0     0   101   102  0.0000000000e+00  0.0000000000e+00  1.9300972386e+02  1.9300972386e+02  0.0000000000e+00 0. 9.
       21    -1     0     0   102   103  0.0000000000e+00  0.0000000000e+00 -8.0922689760e+02  8.0922689760e+02  0.0000000000e+00 0. 9.
        6     2     1     2   101     0 -4.7602775896e+01 -6.6866361563e+01  1.3213514265e+02  2.3146509986e+02  1.7140379794e+02  5.908892e-13 9.
       -6     2     1     2     0   103  4.7602775896e+01  6.6866361563e+01 -7.4835231640e+02  7.7077152160e+02  1.6528888188e+02  2.562190e-13 9.
       24     2     3     0     0     0 -5.4053507304e+01 -9.6562651168e+01  1.4559933648e+02  1.9788227586e+02  7.5578443114e+01  2.811970e-14 9.
        5     1     3     0   101     0  6.4507314086e+00  2.9696289605e+01 -1.3464193831e+01  3.3582823996e+01  4.8000000000e+00 0. 9.
      -24     2     4     0     0     0  1.2847303758e+01  9.8254375220e+01 -6.3543323676e+02  6.4843220335e+02  8.2885152434e+01  2.785924e-13 9.
       -5     1     4     0     0   103  3.4755472138e+01 -3.1388013657e+01 -1.1291907963e+02  1.2233931825e+02  4.8000000000e+00 0. 9.
       -1     1     5     0     0   104 -2.3459287513e+01  1.2684392792e+00  5.9656693365e+01  6.4116901610e+01  3.3000000000e-01 0. 9.
        2     1     5     0   104     0 -3.0594219791e+01 -9.7831090447e+01  8.5942643120e+01  1.3376537425e+02  3.3000000000e-01 0. 9.
       15     1     7     0     0     0  1.1732774727e+01  8.9059617826e+01 -6.3230454334e+02  6.3865598419e+02  1.7768200000e+00  8.966683e-02 9.
      -16     1     7     0     0     0  1.1145290308e+00  9.1947573935e+00 -3.1286934275e+00  9.7762191593e+00  0.0000000000e+00 0. 9.
#pdf   21   21  2.969380e-02  1.244964e-01  1.845469e+02  3.233069e+00  6.032224e-01
</event>
<event>
    12  9999  1.000000e+00  2.009527e+02  7.888161e-03  1.056742e-01
       21    -1     0     0   101   102  0.0000000000e+00  0.0000000000e+00  4.9613149336e+02  4.9613149336e+02  0.0000000000e+00 0. 9.
       21    -1     0     0   103   101  0.0000000000e+00  0.0000000000e+00 -8.3552294100e+01  8.3552294100e+01  0.0000000000e+00 0. 9.
        6     2     1     2   103     0  7.5854226518e+01  7.3750469481e+01  1.5962814410e+02  2.5658007898e+02  1.7076064275e+02  4.432062e-13 9.
       -6     2     1     2     0   102 -7.5854226518e+01 -7.3750469481e+01  2.5295105516e+02  3.2310370848e+02  1.7093500138e+02  4.195422e-14 9.
       24     2     3     0     0     0  4.8716059279e+00 -1.4409306548e+00  2.0324024007e+01  8.3026176824e+01  8.0339724052e+01  1.249332e-14 9.
        5     1     3     0   103     0  7.0982620590e+01  7.5191400136e+01  1.3930412009e+02  1.7355390216e+02  4.8000000000e+00 0. 9.
      -24     2     4     0     0     0 -1.9700824581e+01 -3.1813718520e+01  2.0386825743e+01  8.0161212327e+01  6.7896701854e+01  1.840921e-14 9.
       -5     1     4     0     0   102 -5.6153401937e+01 -4.1936750961e+01  2.3256422942e+02  2.4294249615e+02  4.8000000000e+00 0. 9.
      -13     1     5     0     0     0 -1.3050588773e+01 -3.7603580071e+01  1.3881124711e+01  4.2154998384e+01  1.0566000000e-01  1.659125e+05 9.
       14     1     5     0     0     0  1.7922194700e+01  3.6162649417e+01  6.4428992959e+00  4.0871178440e+01  0.0000000000e+00 0. 9.
        1     1     7     0   104     0 -2.4359843110e+01  1.1709650494e+01  2.4122615892e+01  3.6228819585e+01  3.3000000000e-01 0. 9.
       -2     1     7     0     0   104  4.6590185294e+00 -4.3523369014e+01 -3.7357901496e+00  4.3932392742e+01  3.3000000000e-01 0. 9.
#pdf   21   21  7.632792e-02  1.285420e-02  2.008786e+02  1.162643e+00  6.668260e+00
</event>
<event>
    12  9999  1.000000e+00  2.198624e+02  7.896284e-03  1.045342e-01
       21    -1     0     0   101   102  0.0000000000e+00  0.0000000000e+00  4.1429979677e+01  4.1429979677e+01  0.0000000000e+00 0. 9.
       21    -1     0     0   103   101  0.0000000000e+00  0.0000000000e+00 -1.1900798256e+03  1.1900798256e+03  0.0000000000e+00 0. 9.
        6     2     1     2   103     0  9.1608868460e+01 -1.0502850192e+02 -6.6803225197e+02  7.0427034366e+02  1.7408749608e+02  5.852364e-14 9.
       -6     2     1     2     0   102 -9.1608868460e+01  1.0502850192e+02 -4.8061759394e+02  5.2723946161e+02  1.6602712812e+02  8.839609e-14 9.
       24     2     3     0     0     0  1.0674680301e+02 -3.4102160639e+01 -5.4465610040e+02  5.6107670650e+02  7.4826235725e+01  1.444322e-13 9.
        5     1     3     0   103     0 -1.5137934548e+01 -7.0926341277e+01 -1.2337615157e+02  1.4319363717e+02  4.8000000000e+00 0. 9.
      -24     2     4     0     0     0  6.1475059301e+00  4.5825873802e+01 -1.6393589835e+02  1.9053247291e+02  8.5380571141e+01  9.609772e-14 9.
       -5     1     4     0     0   102 -9.7756374390e+01  5.9202628115e+01 -3.1668169560e+02  3.3670698870e+02  4.8000000000e+00 0. 9.
      -11     1     5     0     0     0  3.1724877302e+01 -4.7111566929e+01 -2.7908608331e+02  2.8480696879e+02  5.1100000000e-04 0. 9.
       12     1     5     0     0     0  7.5021925706e+01  1.3009406290e+01 -2.6557001710e+02  2.7626973770e+02  0.0000000000e+00 0. 9.
       15     1     7     0     0     0  1.2502482524e+01  6.5287572671e+01 -7.9473252306e+01  1.0362400367e+02  1.7768200000e+00  2.081453e-02 9.
      -16     1     7     0     0     0 -6.3549765943e+00 -1.9461698869e+01 -8.4462646039e+01  8.6908469244e+01  0.0000000000e+00 0. 9.
#pdf   21   21  6.373843e-03  1.830892e-01  2.167676e+02  1.136755e+01  3.114766e-01
</event>
<event>
    12  9999  1.000000e+00  2.464213e+02  7.906607e-03  1.031239e-01
       21    -1     0     0   101   102  0.0000000000e+00  0.0000000000e+00  9.2769405011e+02  9.2769405011e+02  0.0000000000e+00 0. 9.
       21    -1     0     0   103   101  0.0000000000e+00  0.0000000000e+00 -8.7298766043e+01  8.7298766043e+01  0.0000000000e+00 0. 9.
        6     2     1     2   103     0 -1.7552087928e+02 -2.7116470650e+01  1.6681557222e+02  2.9787853060e+02  1.7135139863e+02  3.403223e-14 9.
       -6     2     1     2     0   102  1.7552087928e+02  2.7116470650e+01  6.7357971184e+02  7.1711428555e+02  1.7029500374e+02  3.365226e-13 9.
       24     2     3     0     0     0 -1.8345727676e+02 -3.6185233139e+01  1.8546325243e+02  2.7516279078e+02  7.9699434971e+01  1.504924e-13 9.
        5     1     3     0   103     0  7.9363974828e+00  9.0687624889e+00 -1.8647680210e+01  2.2715739814e+01  4.8000000000e+00 0. 9.
      -24     2     4     0     0     0  1.3459073486e+02  9.3255700137e+00  3.0791114021e+02  3.4870101605e+02  9.2636365229e+01  1.440458e-14 9.
       -5     1     4     0     0   102  4.0930144413e+01  1.7790900636e+01  3.6566857163e+02  3.6841326950e+02  4.8000000000e+00 0. 9.
       -3     1     5     0     0   104 -1.4705858428e+02 -5.7238479477e+01  1.2408827516e+02  2.0075014514e+02  5.0000000000e-01 0. 9.
        4     1     5     0   104     0 -3.6398692481e+01  2.1053246338e+01  6.1374977273e+01  7.4412645639e+01  1.5000000000e+00 0. 9.
        1     1     7     0   105     0 -8.4872352210e-01 -2.0705161146e+01  7.2991560203e+01  7.5876879157e+01  3.3000000000e-01 0. 9.
       -2     1     7     0     0   105  1.3543945839e+02  3.0030731159e+01  2.3491958001e+02  2.7282413689e+02  3.3000000000e-01 0. 9.
#pdf   21   21  1.427222e-01  1.343058e-02  2.460554e+02  4.701818e-01  6.431690e+00
</event>
<event>
    12  9999  1.000000e+00  1.791820e+02  7.877829e-03  1.071648e-01
       21    -1     0     0   101   102  0.0000000000e+00  0.0000000000e+00  1.2372785065e+03  1.2372785065e+03  0.0000000000e+00 0. 9.
       21    -1     0     0   103   101  0.0000000000e+00  0.0000000000e+00 -4.3811438788e+01  4.3811438788e+01  0.0000000000e+00 0. 9.
        6     2     1     2   103     0  7.6042563139e+00  5.0264608782e+01  1.9004623949e+02  2.6199971493e+02  1.7303734241e+02  2.432011e-13 9.
       -6     2     1     2     0   102 -7.6042563139e+00 -5.0264608782e+01  1.0034208283e+03  1.0190902304e+03  1.7060827499e+02  9.576686e-15 9.
       24     2     3     0     0     0  6.8319218668e+01  2.8727748427e+01  8.7843212433e+01  1.4109213970e+02  8.1839860374e+01  4.769411e-13 9.
        5     1     3     0   103     0 -6.0714962354e+01  2.1536860355e+01  1.0220302705e+02  1.2090757522e+02  4.8000000000e+00 0. 9.
      -24     2     4     0     0     0 -1.1429653847e+01 -4.1749810244e+01  2.6685563573e+02  2.8245025164e+02  8.1807888904e+01  1.268007e-13 9.
       -5     1     4     0     0   102  3.8253975331e+00 -8.5147985383e+00  7.3656519253e+02  7.3663997876e+02  4.8000000000e+00 0. 9.
       -3     1     5     0     0   104 -1.0098412854e+01 -1.6311790902e+01  9.4000195018e+00  2.1369670826e+01  5.0000000000e-01 0. 9.
        4     1     5     0   104     0  7.8417631522e+01  4.5039539328e+01  7.8443192931e+01  1.1972246888e+02  1.5000000000e+00 0. 9.
        3     1     7     0   105     0 -4.3037823850e+01 -2.6461982187e+01  2.0666311143e+02  2.1274957676e+02  5.0000000000e-01 0. 9.
       -4     1     7     0     0   105  3.1608170002e+01 -1.5287828057e+01  6.0192524294e+01  6.9700674879e+01  1.5000000000e+00 0. 9.
#pdf   21   21  1.903505e-01  6.740221e-03  1.780212e+02  2.992307e-01  1.085741e+01
</event>
<event>
    12  9999  1.000000e+00  1.724438e+02  7.874381e-03  1.076727e-01
       21    -1     0     0   101   102  0.0000000000e+00  0.0000000000e+00  6.4162540139e+01  6.4162540139e+01  0.0000000000e+00 0. 9.
       21    -1     0     0   102   103  0.0000000000e+00  0.0000000000e+00 -1.0343056478e+03  1.0343056478e+03  0.0000000000e+00 0. 9.
        6     2     1     2   101     0 -1.5535421270e+01 -1.3052745606e+01 -7.7579117285e+01  1.8947911445e+02  1.7167437750e+02  3.753395e-14 9.
       -6     2     1     2     0   103  1.5535421270e+01  1.3052745606e+01 -8.9256399037e+02  9.0898907349e+02  1.7081842795e+02  1.211318e-13 9.
       24     2     3     0     0     0 -6.0854709477e+01 -1.1804629316e+01 -9.5778694421e+01  1.4039082373e+02  8.1813080514e+01  1.018117e-14 9.
        5     1     3     0   101     0  4.5319288207e+01 -1.2481162897e+00  1.8199577136e+01  4.9088290720e+01  4.8000000000e+00 0. 9.
      -24     2     4     0     0     0  4.8821562889e+01  4.0036464895e+01 -3.4774206202e+02  3.6246362856e+02  8.0429328059e+01  2.009189e-13 9.
       -5     1     4     0     0   103 -3.3286141620e+01 -2.6983719289e+01 -5.4482192836e+02  5.4652544492e+02  4.8000000000e+00 0. 9.
      -11     1     5     0     0     0 -1.5118768574e+01 -4.3954990656e+01 -4.8449332234e+01  6.7141314859e+01  5.1100000000e-04 0. 9.
       12     1     5     0     0     0 -4.5735940903e+01  3.2150361340e+01 -4.7329362187e+01  7.3249508869e+01  0.0000000000e+00 0. 9.
       13     1     7     0     0     0  9.5896198112e+00 -2.0334869934e+01 -3.5442295775e+01  4.1971838621e+01  1.0566000000e-01  7.105386e+05 9.
      -14     1     7     0     0     0  3.9231943078e+01  6.0371334829e+01 -3.1229976624e+02  3.2049178994e+02  0.0000000000e+00 0. 9.
#pdf   21   21  9.871160e-03  1.591239e-01  1.720194e+02  8.181243e+00  4.131952e-01
</event>
<event>
    12  9999  1.000000e+00  1.864287e+02  7.881398e-03  1.066446e-01
       21    -1     0     0   101   102  0.0000000000e+00  0.0000000000e+00  5.6994264690e+02  5.6994264690e+02  0.0000000000e+00 0. 9.
       21    -1     0     0   102   103  0.0000000000e+00  0.0000000000e+00 -6.2364082546e+01  6.2364082546e+01  0.0000000000e+00 0. 9.
        6     2     1     2   101     0 -4.5187838291e+01 -5.8149402464e+01  2.0738787510e+02  2.7920310855e+02  1.7181778531e+02  1.706059e-13 9.
       -6     2     1     2     0   103  4.5187838291e+01  5.8149402464e+01  3.0019068926e+02  3.5310362089e+02  1.7071737884e+02  9.828333e-14 9.
       24     2     3     0     0     0 -4.2608382668e+01  2.3323526100e+01  1.5862439308e+02  1.8409575416e+02  7.9812827774e+01  6.993475e-14 9.
        5     1     3     0   101     0 -2.5794556230e+00 -8.1472928564e+01  4.8763482019e+01  9.5107354388e+01  4.8000000000e+00 0. 9.
      -24     2     4     0     0     0  3.5376713964e+01 -2.9400169115e+01  1.3650421354e+02  1.6715339106e+02  8.4799610807e+01  4.600129e-15 9.
       -5     1     4     0     0   103  9.8111243269e+00  8.7549571579e+01  1.6368647571e+02  1.8595022984e+02  4.8000000000e+00 0. 9.
      -15     1     5     0     0     0 -3.8344420573e+01  3.0800243002e+01  3.5527986411e+01  6.0698801189e+01  1.7768200000e+00  7.086975e-04 9.
       16     1     5     0     0     0 -4.2639620944e+00 -7.4767169016e+00  1.2309640667e+02  1.2339695297e+02  0.0000000000e+00 0. 9.
       11     1     7     0     0     0 -1.5332955541e+01 -3.7685710550e+01  3.6219060482e+01  5.4471392930e+01  5.1100000000e-04 0. 9.
      -12     1     7     0     0     0  5.0709669505e+01  8.2855414350e+00  1.0028515306e+02  1.1268199813e+02  0.0000000000e+00 0. 9.
#pdf   21   21  8.768348e-02  9.594474e-03  1.859240e+02  9.816547e-01  8.371123e+00
</event>
<event>
    12  9999  1.000000e+00  1.974576e+02  7.886578e-03  1.058996e-01
       21    -1     0     0   101   102  0.0000000000e+00  0.0000000000e+00  9.5654914948e+01  9.5654914948e+01  0.0000000000e+00 0. 9.
       21    -1     0     0   102   103  0.0000000000e+00  0.0000000000e+00 -5.5759393905e+02  5.5759393905e+02  0.0000000000e+00 0. 9.
        6     2     1     2   101     0 -9.7339047407e+01  1.7273321623e+01 -6.2034899851e+01  2.0749265865e+02  1.7155645369e+02  5.211479e-14 9.
       -6     2     1     2     0   103  9.7339047407e+01 -1.7273321623e+01 -3.9990412425e+02  4.4575619535e+02  1.7029979246e+02  8.964014e-14 9.
       24     2     3     0     0     0 -2.0496837956e+01  6.4162256967e+01 -1.7364610742e+01  1.0688564030e+02  8.1154758404e+01  4.038115e-14 9.
        5     1     3     0   101     0 -7.6842209451e+01 -4.6888935344e+01 -4.4670289110e+01  1.0060701834e+02  4.8000000000e+00 0. 9.
      -24     2     4     0     0     0  2.2150953528e+01 -3.8777366100e+01 -1.0326778625e+02  1.3894708465e+02  8.1533476501e+01  3.800738e-14 9.
       -5     1     4     0     0   103  7.5188093879e+01  2.1504044477e+01 -2.9663633800e+02  3.0680911070e+02  4.8000000000e+00 0. 9.
      -13     1     5     0     0     0 -2.7494203029e+01 -4.1768202078e+00  1.4267726192e+01  3.1256298597e+01  1.0566000000e-01  1.947268e+05 9.
       14     1     5     0     0     0  6.9973650725e+00  6.8339077175e+01 -3.1632336934e+01  7.5629341706e+01  0.0000000000e+00 0. 9.
        3     1     7     0   104     0  4.0097115149e+01 -1.7986865128e+01 -1.0239409272e+02  1.1142758269e+02  5.0000000000e-01 0. 9.
       -4     1     7     0     0   104 -1.7946161621e+01 -2.0790500973e+01 -8.7369353538e-01  2.7519501958e+01  1.5000000000e+00 0. 9.
#pdf   21   21  1.471614e-02  8.578368e-02  1.969144e+02  5.976683e+00  1.004492e+00
</event>
<event>
    12  9999  1.000000e+00  1.770805e+02  7.876768e-03  1.073206e-01
       21    -1     0     0   101   102  0.0000000000e+00  0.0000000000e+00  3.2823978739e+02  3.2823978739e+02  0.0000000000e+00 0. 9.
       21    -1     0     0   103   101  0.0000000000e+00  0.0000000000e+00 -1.1793184713e+02  1.1793184713e+02  0.0000000000e+00 0. 9.
        6     2     1     2   103     0 -2.3164708328e+01 -4.2219204745e+01  8.0469854548e+00  1.7750664539e+02  1.7065986705e+02  4.026290e-14 9.
       -6     2     1     2     0   102  2.3164708328e+01  4.2219204745e+01  2.0226095480e+02  2.6866498913e+02  1.7015380568e+02  9.133935e-13 9.
       24     2     3     0     0     0 -2.6320881190e+01 -2.6827239547e+01  6.9256729106e+01  1.1413041374e+02  8.2563716279e+01  3.042390e-15 9.
        5     1     3     0   103     0  3.1561728614e+00 -1.5391965198e+01 -6.1209743651e+01  6.3376231646e+01  4.8000000000e+00 0. 9.
      -24     2     4     0     0     0 -2.4514817377e+01  7.8373524665e+01  1.5131285892e+02  1.8992986042e+02  8.0214618139e+01  7.744767e-15 9.
       -5     1     4     0     0   102  4.7679525705e+01 -3.6154319920e+01  5.0948095881e+01  7.8735128718e+01  4.8000000000e+00 0. 9.
      -13     1     5     0     0     0  1.2881439501e+01  1.5130640563e+01 -4.7772612904e+00  2.0437738547e+01  1.0566000000e-01  3.546894e+05 9.
       14     1     5     0     0     0 -3.9202320690e+01 -4.1957880109e+01  7.4033990396e+01  9.3692675193e+01  0.0000000000e+00 0. 9.
        3     1     7     0   104     0 -2.6963112395e+01  5.6721990949e+01  3.5641786285e+01  7.2214822695e+01  5.0000000000e-01 0. 9.
       -4     1     7     0     0   104  2.4482950180e+00  2.1651533716e+01  1.1567107264e+02  1.1771503772e+02  1.5000000000e+00 0. 9.
#pdf   21   21  5.049843e-02  1.814336e-02  1.768372e+02  1.894740e+00  5.024691e+00
</event>
<event>
    12  9999  1.000000e+00  1.900775e+02  7.883145e-03  1.063922e-01
       21    -1     0     0   101   102  0.0000000000e+00  0.0000000000e+00  2.1223895387e+02  2.1223895387e+02  0.0000000000e+00 0. 9.
       21    -1     0     0   102   103  0.0000000000e+00  0.0000000000e+00 -2.8437559926e+02  2.8437559926e+02  0.0000000000e+00 0. 9.
        6     2     1     2   101     0  5.5755251076e+01  6.0645958320e+01  1.2126237106e+02  2.2535363843e+02  1.7115232816e+02  3.684972e-14 9.
       -6     2     1     2     0   103 -5.5755251076e+01 -6.0645958320e+01 -1.9339901645e+02  2.7126091470e+02  1.7144306343e+02  1.925503e-13 9.
       24     2     3     0     0     0  6.0704868853e+01  3.7120896242e+01  1.4320656425e+00  1.0304145851e+02  7.4514759067e+01  1.008357e-13 9.
        5     1     3     0   101     0 -4.9496177769e+00  2.3525062078e+01  1.1983030541e+02  1.2231217992e+02  4.8000000000e+00 0. 9.
      -24     2     4     0     0     0 -4.3359888700e+01 -1.3080779446e+01 -2.0117145267e+02  2.2126549476e+02  8.0232655841e+01  1.152862e-13 9.
       -5     1     4     0     0   103 -1.2395362376e+01 -4.7565178873e+01  7.7724362262e+00  4.9995419936e+01  4.8000000000e+00 0. 9.
       -1     1     5     0     0   104  4.4016899699e+01  5.0873801611e+01  2.4336118134e+01  7.1540105502e+01  3.3000000000e-01 0. 9.
        2     1     5     0   104     0  1.6687969154e+01 -1.3752905369e+01 -2.2904052491e+01  3.1501353004e+01  3.3000000000e-01 0. 9.
        3     1     7     0   105     0 -1.1728749471e+01  3.3098780590e+01 -6.2059031739e+01  7.1306845822e+01  5.0000000000e-01 0. 9.
       -4     1     7     0     0   105 -3.1631139228e+01 -4.6179560037e+01 -1.3911242094e+02  1.4995864894e+02  1.5000000000e+00 0. 9.
#pdf   21   21  3.265215e-02  4.375009e-02  1.899466e+02  2.949310e+00  2.198163e+00
</event>
<event>
    12  9999  1.000000e+00  2.914658e+02  7.921854e-03  1.011166e-01
       21    -1     0     0   101   102  0.0000000000e+00  0.0000000000e+00  3.1233672700e+02  3.1233672700e+02  0.0000000000e+00 0. 9.
       21    -1     0     0   102   103  0.0000000000e+00  0.0000000000e+00 -3.2006810773e+02  3.2006810773e+02  0.0000000000e+00 0. 9.
        6     2     1     2   101     0 -2.2124672535e+02 -8.4284372167e+01  1.1867439742e+02  3.1543368892e+02  1.7135002373e+02  5.232795e-13 9.
       -6     2     1     2     0   103  2.2124672535e+02  8.4284372167e+01 -1.2640577816e+02  3.1697114581e+02  1.6863664387e+02  1.319507e-13 9.
       24     2     3     0     0     0 -1.0852574511e+02 -1.0050438499e+02  4.8591341676e+01  1.8162867068e+02  9.3535484035e+01  4.870710e-14 9.
        5     1     3     0   101     0 -1.1272098024e+02  1.6220012824e+01  7.0083055745e+01  1.3380501824e+02  4.8000000000e+00 0. 9.
      -24     2     4     0     0     0  1.2646487185e+02  3.7944442861e+01 -8.5500507762e+00  1.5871817971e+02  8.7665344624e+01  7.182410e-14 9.
       -5     1     4     0     0   103  9.4781853506e+01  4.6339929306e+01 -1.1785572738e+02  1.5825296610e+02  4.8000000000e+00 0. 9.
      -13     1     5     0     0     0 -9.2024476083e+01 -2.2517325609e+01  3.3575755246e+01  1.0051306709e+02  1.0566000000e-01  1.166782e+06 9.
       14     1     5     0     0     0 -1.6501269025e+01 -7.7987059382e+01  1.5015586430e+01  8.1115603593e+01  0.0000000000e+00 0. 9.
       15     1     7     0     0     0  1.6577304268e+00 -1.9262639002e+01 -9.0569003848e+00  2.1423862055e+01  1.7768200000e+00  6.575188e-02 9.
      -16     1     7     0     0     0  1.2480714142e+02  5.7207081862e+01  5.0684960866e-01  1.3729431766e+02  0.0000000000e+00 0. 9.
#pdf   21   21  4.805180e-02  4.924125e-02  2.906756e+02  1.938390e+00  1.887053e+00
</event>
<event>
    12  9999  1.000000e+00  1.884018e+02  7.882347e-03  1.065074e-01
       21    -1     0     0   101   102  0.0000000000e+00  0.0000000000e+00  1.7162037736e+02  1.7162037736e+02  0.0000000000e+00 0. 9.
       21    -1     0     0   102   103  0.0000000000e+00  0.0000000000e+00 -2.1800148314e+02  2.1800148314e+02  0.0000000000e+00 0. 9.
        6     2     1     2   101     0  7.6087806788e+01  1.0483766963e+01  2.0729780331e+01  1.9096386029e+02  1.7360359568e+02  3.324426e-14 9.
       -6     2     1     2     0   103 -7.6087806788e+01 -1.0483766963e+01 -6.7110886116e+01  1.9865800021e+02  1.7047541260e+02  9.352923e-14 9.
       24     2     3     0     0     0 -8.0615345064e+00  5.0683116469e+01  2.5752020794e+01  9.7447218780e+01  7.8733901461e+01  2.920009e-14 9.
        5     1     3     0   101     0  8.4149341294e+01 -4.0199349506e+01 -5.0222404629e+00  9.3516641515e+01  4.8000000000e+00 0. 9.
      -24     2     4     0     0     0 -2.1587825601e+01  5.5564913672e+00 -9.0925818563e+01  1.3687022760e+02  9.9845109602e+01  8.604014e-14 9.
       -5     1     4     0     0   103 -5.4499981186e+01 -1.6040258330e+01  2.3814932447e+01  6.1787772610e+01  4.8000000000e+00 0. 9.
      -13     1     5     0     0     0 -1.0660646190e+01  3.1248167022e+01  5.3860812848e+01  6.3175118869e+01  1.0566000000e-01  1.059899e+06 9.
       14     1     5     0     0     0  2.5991116831e+00  1.9434949447e+01 -2.8108792054e+01  3.4272099911e+01  0.0000000000e+00 0. 9.
        3     1     7     0   104     0 -2.1303842259e+01 -4.1196286731e+01 -1.7021946241e+01  4.9406319325e+01  5.0000000000e-01 0. 9.
       -4     1     7     0     0   104 -2.8398334235e-01  4.6752778099e+01 -7.3903872322e+01  8.7463908275e+01  1.5000000000e+00 0. 9.
#pdf   21   21  2.640313e-02  3.353869e-02  1.869790e+02  3.605541e+00  2.875445e+00
</event>
<event>
    12  9999  1.000000e+00  1.795070e+02  7.877992e-03  1.071409e-01
       21    -1     0     0   101   102  0.0000000000e+00  0.0000000000e+00  6.7879694752e+01  6.7879694752e+01  0.0000000000e+00 0. 9.
       21    -1     0     0   103   101  0.0000000000e+00  0.0000000000e+00 -1.3032367003e+03  1.3032367003e+03  0.0000000000e+00 0. 9.
        6     2     1     2   103     0  3.8399044424e+01 -4.4678138539e+01 -1.1604204104e+03  1.1737658187e+03  1.6637321199e+02  8.479463e-15 9.
       -6     2     1     2     0   102 -3.8399044424e+01  4.4678138539e+01 -7.4936595151e+01  1.9735057633e+02  1.7280374419e+02  2.441848e-13 9.
       24     2     3     0     0     0  8.0035994161e+01 -2.3008303237e+01 -9.9399050073e+02  1.0007768822e+03  8.1253368712e+01  8.093609e-14 9.
        5     1     3     0   103     0 -4.1636949738e+01 -2.1669835303e+01 -1.6642990966e+02  1.7298893657e+02  4.8000000000e+00 0. 9.
      -24     2     4     0     0     0  2.5885274581e+01  5.5677817837e+01 -8.4403246458e+01  1.3127392310e+02  7.9617008447e+01  3.518716e-14 9.
       -5     1     4     0     0   102 -6.4284319005e+01 -1.0999679298e+01  9.4666513072e+00  6.6076653226e+01  4.8000000000e+00 0. 9.
       -3     1     5     0     0   104  7.6482953354e+01  1.4969277842e+01 -6.3623403343e+02  6.4098963855e+02  5.0000000000e-01 0. 9.
        4     1     5     0   104     0  3.5530408073e+00 -3.7977581078e+01 -3.5775646730e+02  3.5978724361e+02  1.5000000000e+00 0. 9.
        3     1     7     0   105     0  3.3013629633e+01 -2.2946329600e+00 -6.2301627992e+00  3.3678331468e+01  5.0000000000e-01 0. 9.
       -4     1     7     0     0   105 -7.1283550519e+00  5.7972450797e+01 -7.8173083659e+01  9.7595591631e+01  1.5000000000e+00 0. 9.
#pdf   21   21  1.044303e-02  2.004980e-01  1.764955e+02  7.839930e+00  2.713518e-01
</event>
<event>
    12  9999  1.000000e+00  1.809284e+02  7.878702e-03  1.070371e-01
       21    -1     0     0   101   102  0.0000000000e+00  0.0000000000e+00  3.1176222115e+01  3.1176222115e+01  0.0000000000e+00 0. 9.
       21    -1     0     0   103   101  0.0000000000e+00  0.0000000000e+00 -1.0540237806e+03  1.0540237806e+03  0.0000000000e+00 0. 9.
        6     2     1     2   103     0  5.6443389184e+01  1.5646899226e+00 -4.8279883933e+02  5.1615745633e+02  1.7359578344e+02  1.312025e-13 9.
       -6     2     1     2     0   102 -5.6443389184e+01 -1.5646899226e+00 -5.4004871911e+02  5.6904254634e+02  1.7020133988e+02  7.826001e-15 9.
       24     2     3     0     0     0  3.5681176880e+01  1.6793716793e+01 -1.0673706126e+02  1.3918465407e+02  8.0152307354e+01  2.114126e-13 9.
        5     1     3     0   103     0  2.0762212304e+01 -1.5229026871e+01 -3.7606177807e+02  3.7697280226e+02  4.8000000000e+00 0. 9.
      -24     2     4     0     0     0 -2.2276748102e+01 -3.7156290520e+01 -4.9099322042e+02  4.9930300700e+02  7.9701360520e+01  1.982005e-13 9.
       -5     1     4     0     0   102 -3.4166641082e+01  3.5591600598e+01 -4.9055498693e+01  6.9739539344e+01  4.8000000000e+00 0. 9.
       -1     1     5     0     0   104 -1.8895765866e+01  1.2007201799e+01 -6.9301886404e+01  7.2829137177e+01  3.3000000000e-01 0. 9.
        2     1     5     0   104     0  5.4576942747e+01  4.7865149947e+00 -3.7435174855e+01  6.6355516890e+01  3.3000000000e-01 0. 9.
       13     1     7     0     0     0 -1.6289675170e+01 -3.0225042469e+01 -6.7686090298e+01  7.5896802918e+01  1.0566000000e-01  2.255269e+06 9.
      -14     1     7     0     0     0 -5.9870729327e+00 -6.9312480515e+00 -4.2330713012e+02  4.2340620408e+02  0.0000000000e+00 0. 9.
#pdf   21   21  4.796342e-03  1.621575e-01  1.793232e+02  1.380058e+01  3.978419e-01
</event>
<event>
    12  9999  1.000000e+00  1.869652e+02  7.881657e-03  1.066071e-01
       21    -1     0     0   101   102  0.0000000000e+00  0.0000000000e+00  2.4016005916e+02  2.4016005916e+02  0.0000000000e+00 0. 9.
       21    -1     0     0   103   101  0.0000000000e+00  0.0000000000e+00 -2.9948480644e+02  2.9948480644e+02  0.0000000000e+00 0. 9.
        6     2     1     2   103     0  6.9430364330e+01  2.6700920130e+01 -2.2308370434e+02  2.9088616873e+02  1.7121597293e+02  2.886004e-13 9.
       -6     2     1     2     0   102 -6.9430364330e+01 -2.6700920130e+01  1.6375895706e+02  2.4875869688e+02  1.7184405322e+02  7.162024e-14 9.
       24     2     3     0     0     0  9.5995156806e+01 -2.5252351473e+01 -1.6926457994e+02  2.1136026866e+02  7.8548798601e+01  6.816862e-14 9.
        5     1     3     0   103     0 -2.6564792476e+01  5.1953271603e+01 -5.3819124405e+01  7.9525900065e+01  4.8000000000e+00 0. 9.
      -24     2     4     0     0     0 -7.8550005628e+01 -7.0980649168e+01  1.5191318951e+02  2.0177758929e+02  8.0176196302e+01  7.859584e-15 9.
       -5     1     4     0     0   102  9.1196412979e+00  4.4279729039e+01  1.1845767553e+01  4.6981107587e+01  4.8000000000e+00 0. 9.
       -1     1     5     0     0   104 -1.2482326698e+01  5.3962320761e+00 -1.4335387349e+01  1.9762085691e+01  3.3000000000e-01 0. 9.
        2     1     5     0   104     0  1.0847748350e+02 -3.0648583549e+01 -1.5492919259e+02  1.9159818297e+02  3.3000000000e-01 0. 9.
        3     1     7     0   105     0 -3.7138363643e+01 -5.3401036372e+01  2.9640494674e+01  7.1482429060e+01  5.0000000000e-01 0. 9.
       -4     1     7     0     0   105 -4.1411641985e+01 -1.7579612796e+01  1.2227269483e+02  1.3029516023e+02  1.5000000000e+00 0. 9.
#pdf   21   21  3.694770e-02  4.607459e-02  1.866773e+02  2.614158e+00  2.083681e+00
</event>
<event>
    12  9999  1.000000e+00  2.179453e+02  7.895492e-03  1.046441e-01
       21    -1     0     0   101   102  0.0000000000e+00  0.0000000000e+00  1.0504084299e+02  1.0504084299e+02  0.0000000000e+00 0. 9.
       21    -1     0     0   102   103  0.0000000000e+00  0.0000000000e+00 -4.5445115584e+02  4.5445115584e+02  0.0000000000e+00 0. 9.
        6     2     1     2   101     0  6.4693181935e+01  1.1875325902e+02 -1.9432386526e+02  2.9195793112e+02  1.7085117681e+02  7.407536e-14 9.
       -6     2     1     2     0   103 -6.4693181935e+01 -1.1875325902e+02 -1.5508644760e+02  2.6753406771e+02  1.7098282616e+02  2.482459e-13 9.
       24     2     3     0     0     0 -1.5714378129e+01  7.5923494562e+01 -5.6935675113e+01  1.2703880175e+02  8.2981126429e+01  1.044915e-13 9.
        5     1     3     0   101     0  8.0407560064e+01  4.2829764457e+01 -1.3738819015e+02  1.6491912937e+02  4.8000000000e+00 0. 9.
      -24     2     4     0     0     0 -3.6687170890e+01  6.4563801613e+00 -7.6333917910e+01  1.1691271687e+02  8.0337307577e+01  3.551663e-15 9.
       -5     1     4     0     0   103 -2.8006011045e+01 -1.2520963918e+02 -7.8752529687e+01  1.5062135085e+02  4.8000000000e+00 0. 9.
       -1     1     5     0     0   104  5.2226583130e+00  1.0580074730e+00  1.8174417733e+01  1.8942383683e+01  3.3000000000e-01 0. 9.
        2     1     5     0   104     0 -2.0937036442e+01  7.4865487089e+01 -7.5110092845e+01  1.0809641807e+02  3.3000000000e-01 0. 9.
        1     1     7     0   105     0 -4.7328934106e+01 -7.7096453023e+00 -8.4687229953e+01  9.7321644311e+01  3.3000000000e-01 0. 9.
       -2     1     7     0     0   105  1.0641763216e+01  1.4166025464e+01  8.3533120427e+00  1.9591072555e+01  3.3000000000e-01 0. 9.
#pdf   21   21  1.616013e-02  6.991556e-02  2.178937e+02  5.525867e+00  1.285816e+00
</event>
<event>
    12  9999  1.000000e+00  2.489570e+02  7.907536e-03  1.029992e-01
       21    -1     0     0   101   102  0.0000000000e+00  0.0000000000e+00  7.6297427552e+01  7.6297427552e+01  0.0000000000e+00 0. 9.
       21    -1     0     0   102   103  0.0000000000e+00  0.0000000000e+00 -8.5804188068e+02  8.5804188068e+02  0.0000000000e+00 0. 9.
        6     2     1     2   101     0  9.4271280271e+01  1.5352458527e+02 -2.8355069719e+02  3.7755208583e+02  1.7230121029e+02  2.864813e-13 9.
       -6     2     1     2     0   103 -9.4271280271e+01 -1.5352458527e+02 -4.9819375594e+02  5.5678722241e+02  1.7134211396e+02  1.345022e-13 9.
       24     2     3     0     0     0  1.0030009852e+02  1.1388199163e+02 -2.8975169168e+02  3.3669410971e+02  7.9860271117e+01  6.098167e-14 9.
        5     1     3     0   101     0 -6.0288182475e+00  3.9642593634e+01  6.2009944880e+00  4.0857976114e+01  4.8000000000e+00 0. 9.
      -24     2     4     0     0     0 -7.3424497773e+01 -1.5905207820e+02 -2.9550302452e+02  3.5289579512e+02  8.0775517697e+01  6.957471e-14 9.
       -5     1     4     0     0   103 -2.0846782498e+01  5.5274929346e+00 -2.0269073142e+02  2.0389142729e+02  4.8000000000e+00 0. 9.
       -1     1     5     0     0   104  1.5392610736e-01 -1.6151695504e-01 -6.7859366010e+01  6.7860535189e+01  3.3000000000e-01 0. 9.
        2     1     5     0   104     0  1.0014617241e+02  1.1404350859e+02 -2.2189232567e+02  2.6883357452e+02  3.3000000000e-01 0. 9.
        1     1     7     0   105     0 -4.3439022136e+01 -6.8831145204e+01 -2.0926599186e+02  2.2453738985e+02  3.3000000000e-01 0. 9.
       -2     1     7     0     0   105 -2.9985475637e+01 -9.0220932998e+01 -8.6237032666e+01  1.2835840527e+02  3.3000000000e-01 0. 9.
#pdf   21   21  1.173807e-02  1.320064e-01  2.486262e+02  7.168795e+00  5.315258e-01
</event>
<event>
    12  9999  1.000000e+00  2.079315e+02  7.891243e-03  1.052385e-01
       21    -1     0     0   101   102  0.0000000000e+00  0.0000000000e+00  1.7442128909e+02  1.7442128909e+02  0.0000000000e+00 0. 9.
       21    -1     0     0   103   101  0.0000000000e+00  0.0000000000e+00 -4.5487028458e+02  4.5487028458e+02  0.0000000000e+00 0. 9.
        6     2     1     2   103     0 -4.6445237210e+01 -1.1636507231e+02 -3.5088917447e+02  4.0580532838e+02  1.6080037833e+02  6.425913e-14 9.
       -6     2     1     2     0   102  4.6445237210e+01  1.1636507231e+02  7.0440178969e+01  2.2348624529e+02  1.7113238415e+02  4.067406e-13 9.
       24     2     3     0     0     0 -3.2201659506e+01 -1.0392979113e+02 -1.4494802726e+02  1.9894230163e+02  8.2035116945e+01  6.837071e-15 9.
        5     1     3     0   103     0 -1.4243577705e+01 -1.2435281183e+01 -2.0594114721e+02  2.0686302675e+02  4.8000000000e+00 0. 9.
      -24     2     4     0     0     0 -3.5725094710e+01  6.8059220562e+01  6.0896041268e+01  1.2757196415e+02  8.1596190476e+01  7.496531e-14 9.
       -5     1     4     0     0   102  8.2170331920e+01  4.8305851750e+01  9.5441377014e+00  9.5914281135e+01  4.8000000000e+00 0. 9.
       -1     1     5     0     0   104 -6.6256518671e+00 -6.6533954060e+01 -1.3767872533e+02  1.5305622044e+02  3.3000000000e-01 0. 9.
        2     1     5     0   104     0 -2.5576007639e+01 -3.7395837069e+01 -7.2693019304e+00  4.5886081194e+01  3.3000000000e-01 0. 9.
        1     1     7     0   105     0  9.4128723892e+00  2.0069541768e+01 -1.5228922199e+01  2.6896424386e+01  3.3000000000e-01 0. 9.
       -2     1     7     0     0   105 -4.5137967099e+01  4.7989678794e+01  7.6124963466e+01  1.0067553977e+02  3.3000000000e-01 0. 9.
#pdf   21   21  2.683404e-02  6.998004e-02  2.038498e+02  3.542486e+00  1.291524e+00
</event>
<event>
    12  9999  1.000000e+00  1.835275e+02  7.879986e-03  1.068498e-01
       21    -1     0     0   101   102  0.0000000000e+00  0.0000000000e+00  3.7134203738e+02  3.7134203738e+02  0.0000000000e+00 0. 9.
       21    -1     0     0   102   103  0.0000000000e+00  0.0000000000e+00 -3.0525541194e+02  3.0525541194e+02  0.0000000000e+00 0. 9.
        6     2     1     2   101     0  6.3737953365e+01 -2.4290302200e+01  3.1669479517e+02  3.6635525701e+02  1.7107903312e+02  1.829222e-13 9.
       -6     2     1     2     0   103 -6.3737953365e+01  2.4290302200e+01 -2.5060816973e+02  3.1024219230e+02  1.6968564367e+02  6.871734e-14 9.
       24     2     3     0     0     0  4.2986395701e+01  3.0056620308e+01  2.8399765441e+02  2.9944966573e+02  7.9146724213e+01  7.871059e-14 9.
        5     1     3     0   101     0  2.0751557664e+01 -5.4346922508e+01  3.2697140758e+01  6.6905591286e+01  4.8000000000e+00 0. 9.
      -24     2     4     0     0     0 -1.0550572246e+02  1.2461481216e+01 -1.4979703763e+02  2.0037685703e+02  8.0156012645e+01  9.859832e-14 9.
       -5     1     4     0     0   103  4.1767769091e+01  1.1828820984e+01 -1.0081113209e+02  1.0986533527e+02  4.8000000000e+00 0. 9.
       -1     1     5     0     0   104  1.8409052320e+01  1.3530015109e+01  1.1932302406e+01  2.5776796870e+01  3.3000000000e-01 0. 9.
        2     1     5     0   104     0  2.4577343381e+01  1.6526605198e+01  2.7206535201e+02  2.7367286886e+02  3.3000000000e-01 0. 9.
       15     1     7     0     0     0 -1.0147197684e+02  3.6983734154e+01 -1.1715728438e+02  1.5935289469e+02  1.7768200000e+00  1.169642e-01 9.
      -16     1     7     0     0     0 -4.0337456183e+00 -2.4522252938e+01 -3.2639753254e+01  4.1023962332e+01  0.0000000000e+00 0. 9.
#pdf   21   21  5.712954e-02  4.696237e-02  1.828818e+02  1.649881e+00  2.044288e+00
</event>
<event>
    12  9999  1.000000e+00  2.073217e+02  7.890977e-03  1.052758e-01
        2    -1     0     0   101     0  0.0000000000e+00  0.0000000000e+00  1.8611462336e+02  1.8611462336e+02  0.0000000000e+00 0. 9.
       -2    -1     0     0     0   102  0.0000000000e+00  0.0000000000e+00 -2.3826012986e+02  2.3826012986e+02  0.0000000000e+00 0. 9.
        6     2     1     2   101     0  3.2830056494e-01 -1.1766946440e+02 -6.3169438045e+01  2.1612902232e+02  1.6992694240e+02  5.473069e-14 9.
       -6     2     1     2     0   102 -3.2830056494e-01  1.1766946440e+02  1.1023931546e+01  2.0824573091e+02  1.7146004415e+02  1.480258e-13 9.
       24     2     3     0     0     0 -2.7613340637e+01 -1.5671866131e+00 -1.8948489949e+01  8.8696661943e+01  8.2116380299e+01  2.617653e-14 9.
        5     1     3     0   101     0  2.7941641202e+01 -1.1610227779e+02 -4.4220948096e+01  1.2743236038e+02  4.8000000000e+00 0. 9.
      -24     2     4     0     0     0  2.8801229140e+01  7.9634498529e+01 -4.8542887296e+01  1.3165308089e+02  8.8345671340e+01  1.518810e-13 9.
       -5     1     4     0     0   102 -2.9129529705e+01  3.8034965872e+01  5.9566818842e+01  7.6592650017e+01  4.8000000000e+00 0. 9.
       -1     1     5     0     0   103 -4.1666595963e+01 -8.1254969809e+00 -4.2775117201e+01  6.0265649186e+01  3.3000000000e-01 0. 9.
        2     1     5     0   103     0  1.4053255326e+01  6.5583103679e+00  2.3826627252e+01  2.8431012756e+01  3.3000000000e-01 0. 9.
        3     1     7     0   104     0  6.9932959163e+00  4.7205896415e+01  2.0786403172e+01  5.2054081501e+01  5.0000000000e-01 0. 9.
       -4     1     7     0     0   104  2.1807933224e+01  3.2428602114e+01 -6.9329290469e+01  7.9598999387e+01  1.5000000000e+00 0. 9.
#pdf    2   -2  2.863302e-02  3.665540e-02  2.066915e+02  6.515646e-01  2.080622e-01
</event>
<event>
    12  9999  1.000000e+00  1.841870e+02  7.880309e-03  1.068028e-01
       21    -1     0     0   101   102  0.0000000000e+00  0.0000000000e+00  2.3395464421e+02  2.3395464421e+02  0.0000000000e+00 0. 9.
       21    -1     0     0   102   103  0.0000000000e+00  0.0000000000e+00 -2.5381965678e+02  2.5381965678e+02  0.0000000000e+00 0. 9.
        6     2     1     2   101     0 -6.8644678610e+01 -3.8561127569e+00  1.4975560938e+02  2.3733956733e+02  1.7081090765e+02  4.231179e-14 9.
       -6     2     1     2     0   103  6.8644678610e+01  3.8561127569e+00 -1.6962062195e+02  2.5043473366e+02  1.7093694430e+02  3.266331e-13 9.
       24     2     3     0     0     0 -2.3264218347e+01 -4.4114022027e+01  1.4962584837e+02  1.7648611820e+02  7.9197125089e+01  4.385477e-14 9.
        5     1     3     0   101     0 -4.5380460264e+01  4.0257909270e+01  1.2976101002e-01  6.0853449126e+01  4.8000000000e+00 0. 9.
      -24     2     4     0     0     0 -2.7726442961e+01 -1.1418435101e+01 -6.9469372099e+01  1.1052755825e+02  8.0568053057e+01  6.341091e-14 9.
       -5     1     4     0     0   103  9.6371121571e+01  1.5274547858e+01 -1.0015124985e+02  1.3990717541e+02  4.8000000000e+00 0. 9.
       -1     1     5     0     0   104  2.3891817348e+01  4.7902266305e+00  2.7565801002e+01  3.6793307710e+01  3.3000000000e-01 0. 9.
        2     1     5     0   104     0 -4.7156035695e+01 -4.8904248657e+01  1.2206004737e+02  1.3969281049e+02  3.3000000000e-01 0. 9.
        3     1     7     0   105     0  1.6424806136e+01  1.2224994333e+01 -5.4518583705e+01  5.8238738930e+01  5.0000000000e-01 0. 9.
       -4     1     7     0     0   105 -4.4151249097e+01 -2.3643429435e+01 -1.4950788394e+01  5.2288819319e+01  1.5000000000e+00 0. 9.
#pdf   21   21  3.599302e-02  3.904918e-02  1.841286e+02  2.684649e+00  2.474573e+00
</event>
<event>
    12  9999  1.000000e+00  1.860051e+02  7.881194e-03  1.066743e-01
       21    -1     0     0   101   102  0.0000000000e+00  0.0000000000e+00  1.2444436006e+03  1.2444436006e+03  0.0000000000e+00 0. 9.
       21    -1     0     0   103   101  0.0000000000e+00  0.0000000000e+00 -3.2459818451e+01  3.2459818451e+01  0.0000000000e+00 0. 9.
        6     2     1     2   103     0  1.0821563481e+01  7.5375922130e+01  3.5196009531e+02  3.9601235774e+02  1.6477634211e+02  5.278458e-14 9.
       -6     2     1     2     0   102 -1.0821563481e+01 -7.5375922130e+01  8.6002368683e+02  8.8089106130e+02  1.7472745663e+02  4.846663e-15 9.
       24     2     3     0     0     0 -3.1868134030e+01  3.2542809222e+01  3.0783924835e+02  3.2100052553e+02  7.8751013760e+01  1.080855e-13 9.
        5     1     3     0   103     0  4.2689697511e+01  4.2833112907e+01  4.4120846962e+01  7.5011832210e+01  4.8000000000e+00 0. 9.
      -24     2     4     0     0     0  2.7918566227e+01 -4.5889775647e+01  7.8736033529e+02  7.9329406854e+02  8.0584513035e+01  6.174085e-15 9.
       -5     1     4     0     0   102 -3.8740129708e+01 -2.9486146483e+01  7.2663351540e+01  8.7596992763e+01  4.8000000000e+00 0. 9.
       -3     1     5     0     0   104  4.4095417864e+00  4.8799298343e+01  1.3430220319e+02  1.4296204867e+02  5.0000000000e-01 0. 9.
        4     1     5     0   104     0 -3.6277675817e+01 -1.6256489121e+01  1.7353704516e+02  1.7803847686e+02  1.5000000000e+00 0. 9.
       15     1     7     0     0     0 -2.3672625032e+01 -2.7511348772e+01  1.9112228285e+02  1.9454601404e+02  1.7768200000e+00  2.271624e-02 9.
      -16     1     7     0     0     0  5.1591191259e+01 -1.8378426875e+01  5.9623805244e+02  5.9874805450e+02  0.0000000000e+00 0. 9.
#pdf   21   21  1.914529e-01  4.993818e-03  1.815210e+02  2.950399e-01  1.342829e+01
</event>
<event>
    12  9999  1.000000e+00  2.476251e+02  7.907049e-03  1.030645e-01
       21    -1     0     0   101   102  0.0000000000e+00  0.0000000000e+00  9.5382322509e+02  9.5382322509e+02  0.0000000000e+00 0. 9.
       21    -1     0     0   102   103  0.0000000000e+00  0.0000000000e+00 -6.5770197626e+01  6.5770197626e+01  0.0000000000e+00 0. 9.
        6     2     1     2   101     0 -1.6669910690e+02  6.1860816128e+01  5.2118477078e+02  5.7716641676e+02  1.7283562864e+02  2.621237e-14 9.
       -6     2     1     2     0   103  1.6669910690e+02 -6.1860816128e+01  3.6686825669e+02  4.4242700596e+02  1.7185454613e+02  1.041590e-13 9.
       24     2     3     0     0     0 -3.3642171992e+01  1.5165159226e+01  9.3216012708e+01  1.2653915373e+02  7.7208513846e+01  1.536663e-14 9.
        5     1     3     0   101     0 -1.3305693491e+02  4.6695656903e+01  4.2796875807e+02  4.5062726303e+02  4.8000000000e+00 0. 9.
      -24     2     4     0     0     0  8.2675886998e+01 -1.0189692046e+02  2.3574419519e+02  2.8155640381e+02  8.0500920922e+01  4.723318e-14 9.
       -5     1     4     0     0   103  8.4023219902e+01  4.0036104336e+01  1.3112406150e+02  1.6087060215e+02  4.8000000000e+00 0. 9.
       -3     1     5     0     0   104  8.8929673751e+00  3.2914434948e+01  6.2298278333e+01  7.1019507039e+01  5.0000000000e-01 0. 9.
        4     1     5     0   104     0 -4.2535139367e+01 -1.7749275723e+01  3.0917734374e+01  5.5519646689e+01  1.5000000000e+00 0. 9.
        3     1     7     0   105     0  5.9624113649e+01 -1.8657593960e+01  1.3560615281e+02  1.4930646141e+02  5.0000000000e-01 0. 9.
       -4     1     7     0     0   105  2.3051773349e+01 -8.3239326505e+01  1.0013804239e+02  1.3224994240e+02  1.5000000000e+00 0. 9.
#pdf   21   21  1.467420e-01  1.011849e-02  2.472839e+02  4.490631e-01  8.057522e+00
</event>
<event>
    12  9999  1.000000e+00  1.965664e+02  7.886171e-03  1.059578e-01
       21    -1     0     0   101   102  0.0000000000e+00  0.0000000000e+00  1.3271920788e+02  1.3271920788e+02  0.0000000000e+00 0. 9.
       21    -1     0     0   103   101  0.0000000000e+00  0.0000000000e+00 -4.1892642417e+02  4.1892642417e+02  0.0000000000e+00 0. 9.
        6     2     1     2   103     0 -8.9839114163e+01 -3.9465128080e+01 -2.9546314291e+02  3.5489372071e+02  1.7035997596e+02  1.252871e-13 9.
       -6     2     1     2     0   102  8.9839114163e+01  3.9465128080e+01  9.2559266186e+00  1.9675191135e+02  1.7028528907e+02  2.948792e-14 9.
       24     2     3     0     0     0 -1.0113921457e+02 -3.8170790794e+01 -1.2592511914e+02  1.8490681214e+02  8.1530629533e+01  3.656939e-14 9.
        5     1     3     0   103     0  1.1300100409e+01 -1.2943372861e+00 -1.6953802377e+02  1.6998690856e+02  4.8000000000e+00 0. 9.
      -24     2     4     0     0     0 -9.8826368491e+00  4.1553781526e+01 -2.0895678348e+01  9.2440122079e+01  7.9272716152e+01  4.313593e-14 9.
       -5     1     4     0     0   102  9.9721751012e+01 -2.0886534462e+00  3.0151604966e+01  1.0431178927e+02  4.8000000000e+00 0. 9.
       -3     1     5     0     0   104 -4.2718780511e+01  1.1890720694e+01 -9.5031649257e+00  4.5352437537e+01  5.0000000000e-01 0. 9.
        4     1     5     0   104     0 -5.8420434061e+01 -5.0061511487e+01 -1.1642195421e+02  1.3955437460e+02  1.5000000000e+00 0. 9.
        1     1     7     0   105     0  2.9510754793e+01  4.0232731528e+01 -1.7503204954e+01  5.2877484984e+01  3.3000000000e-01 0. 9.
       -2     1     7     0     0   105 -3.9393391642e+01  1.3210499982e+00 -3.3924733936e+00  3.9562637094e+01  3.3000000000e-01 0. 9.
#pdf   21   21  2.041834e-02  6.445022e-02  1.965341e+02  4.532671e+00  1.428740e+00
</event>
<event>
    12  9999  1.000000e+00  2.027971e+02  7.888986e-03  1.055572e-01
       21    -1     0     0   101   102  0.0000000000e+00  0.0000000000e+00  1.1293377986e+02  1.1293377986e+02  0.0000000000e+00 0. 9.
       21    -1     0     0   103   101  0.0000000000e+00  0.0000000000e+00 -3.8961844483e+02  3.8961844483e+02  0.0000000000e+00 0. 9.
        6     2     1     2   103     0 -3.3946665337e+01 -1.0410105247e+02 -2.0285652851e+02  2.8716590401e+02  1.7124275182e+02  1.950036e-13 9.
       -6     2     1     2     0   102  3.3946665337e+01  1.0410105247e+02 -7.3828136455e+01  2.1538632069e+02  1.7015072199e+02  2.979418e-13 9.
       24     2     3     0     0     0  3.7868803007e+01 -6.8325786434e+01 -7.0422923154e+01  1.3224969768e+02  8.0175651531e+01  2.092558e-14 9.
        5     1     3     0   103     0 -7.1815468344e+01 -3.5775266033e+01 -1.3243360536e+02  1.5491620632e+02  4.8000000000e+00 0. 9.
      -24     2     4     0     0     0 -2.7525901040e+01  7.3112977613e+01 -9.1696404791e+01  1.4410201517e+02  7.9082092792e+01  3.192396e-13 9.
       -5     1     4     0     0   102  6.1472566377e+01  3.0988074853e+01  1.7868268336e+01  7.1284305520e+01  4.8000000000e+00 0. 9.
      -15     1     5     0     0     0 -7.6536675118e+00 -6.3245482078e+01 -5.4182130752e+01  8.3650642626e+01  1.7768200000e+00  9.833033e-02 9.
       16     1     5     0     0     0  4.5522470518e+01 -5.0803043556e+00 -1.6240792402e+01  4.8599055055e+01  0.0000000000e+00 0. 9.
        1     1     7     0   104     0 -1.6407046749e+01 -1.2659831089e+01 -3.5025662780e+01  4.0698506845e+01  3.3000000000e-01 0. 9.
       -2     1     7     0     0   104 -1.1118854292e+01  8.5772808703e+01 -5.6670742011e+01  1.0340350832e+02  3.3000000000e-01 0. 9.
#pdf   21   21  1.737443e-02  5.994130e-02  2.023380e+02  5.204109e+00  1.550950e+00
</event>
<event>
    12  9999  1.000000e+00  3.033016e+02  7.925478e-03  1.006523e-01
       21    -1     0     0   101   102  0.0000000000e+00  0.0000000000e+00  1.4783925036e+02  1.4783925036e+02  0.0000000000e+00 0. 9.
       21    -1     0     0   103   101  0.0000000000e+00  0.0000000000e+00 -1.6200582436e+03  1.6200582436e+03  0.0000000000e+00 0. 9.
        6     2     1     2   103     0 -6.0604412194e+01  2.4184721815e+02 -1.4289270365e+03  1.4605609959e+03  1.7100577567e+02  7.650688e-14 9.
       -6     2     1     2     0   102  6.0604412194e+01 -2.4184721815e+02 -4.3291956739e+01  3.0733649810e+02  1.7440916787e+02  2.127696e-13 9.
       24     2     3     0     0     0  2.4611235296e+01  1.6154835887e+02 -9.6354198410e+02  9.8064860764e+02  8.0962654280e+01  3.144366e-14 9.
        5     1     3     0   103     0 -8.5215647491e+01  8.0298859278e+01 -4.6538505238e+02  4.7991238821e+02  4.8000000000e+00 0. 9.
      -24     2     4     0     0     0  3.9349190436e+01 -3.4707901992e+01 -4.3217150869e+00  9.5439824017e+01  7.9605813472e+01  6.823441e-14 9.
       -5     1     4     0     0   102  2.1255221759e+01 -2.0713931616e+02 -3.8970241652e+01  2.1189667408e+02  4.8000000000e+00 0. 9.
      -15     1     5     0     0     0 -2.6386193600e+01  9.0431465502e+01 -4.5847260950e+02  4.6805381306e+02  1.7768200000e+00  9.270301e-02 9.
       16     1     5     0     0     0  5.0997428896e+01  7.1116893372e+01 -5.0506937460e+02  5.1259479458e+02  0.0000000000e+00 0. 9.
       11     1     7     0     0     0 -1.6101041159e+01  1.2184787059e+01  8.1170197851e+00  2.1762320018e+01  5.1100000000e-04 0. 9.
      -12     1     7     0     0     0  5.5450231595e+01 -4.6892689051e+01 -1.2438734872e+01  7.3677503999e+01  0.0000000000e+00 0. 9.
#pdf   21   21  2.274450e-02  2.492397e-01  3.023342e+02  4.073145e+00  1.524176e-01
</event>
<event>
    12  9999  1.000000e+00  2.343077e+02  7.902041e-03  1.037425e-01
       21    -1     0     0   101   102  0.0000000000e+00  0.0000000000e+00  8.7279072307e+01  8.7279072307e+01  0.0000000000e+00 0. 9.
       21    -1     0     0   102   103  0.0000000000e+00  0.0000000000e+00 -9.2331270684e+02  9.2331270684e+02  0.0000000000e+00 0. 9.
        6     2     1     2   101     0  1.2080275480e+02  1.0432320903e+02 -1.3250158943e+02  2.6900531903e+02  1.7126165056e+02  5.036085e-14 9.
       -6     2     1     2     0   103 -1.2080275480e+02 -1.0432320903e+02 -7.0353204511e+02  7.4158646013e+02  1.7180367236e+02  9.266454e-14 9.
       24     2     3     0     0     0  5.4053304487e+01 -1.0890249079e+01 -3.7007826054e+01  1.0507933301e+02  8.1435433237e+01  3.176909e-14 9.
        5     1     3     0   101     0  6.6749450311e+01  1.1521345811e+02 -9.5493763373e+01  1.6392598601e+02  4.8000000000e+00 0. 9.
      -24     2     4     0     0     0 -3.1472795966e+01 -3.7860887407e+01 -1.5010690721e+02  1.7705169148e+02  7.9945194887e+01  6.151696e-14 9.
       -5     1     4     0     0   103 -8.9329958831e+01 -6.6462321624e+01 -5.5342513790e+02  5.6453476864e+02  4.8000000000e+00 0. 9.
       -3     1     5     0     0   104  3.0269498772e+01 -1.5107069609e+01  2.2639350260e+01  4.0709412773e+01  5.0000000000e-01 0. 9.
        4     1     5     0   104     0  2.3783805715e+01  4.2168205301e+00 -5.9647176314e+01  6.4369920242e+01  1.5000000000e+00 0. 9.
       11     1     7     0     0     0 -5.6054113969e+01 -1.3472689883e+01 -7.7307099154e+01  9.6436324305e+01  5.1100000000e-04 0. 9.
      -12     1     7     0     0     0  2.4581318003e+01 -2.4388197523e+01 -7.2799808052e+01  8.0615367180e+01  0.0000000000e+00 0. 9.
#pdf   21   21  1.342755e-02  1.420481e-01  2.341094e+02  6.434358e+00  4.769473e-01
</event>
<event>
    12  9999  1.000000e+00  2.011050e+02  7.888230e-03  1.056645e-01
       21    -1     0     0   101   102  0.0000000000e+00  0.0000000000e+00  1.0482741786e+02  1.0482741786e+02  0.0000000000e+00 0. 9.
       21    -1     0     0   103   101  0.0000000000e+00  0.0000000000e+00 -4.9974716679e+02  4.9974716679e+02  0.0000000000e+00 0. 9.
        6     2     1     2   103     0 -1.0438237728e+02 -2.2382664132e+01 -3.4308678719e+02  3.9856395643e+02  1.7247614177e+02  8.069586e-15 9.
       -6     2     1     2     0   102  1.0438237728e+02  2.2382664132e+01 -5.1832961738e+01  2.0601062823e+02  1.6839554234e+02  1.403714e-14 9.
       24     2     3     0     0     0  1.7269375367e+00 -3.8959410373e+01 -2.3616836495e+02  2.4694415488e+02  6.0705033208e+01  1.467046e-14 9.
        5     1     3     0   103     0 -1.0610931482e+02  1.6576746241e+01 -1.0691842224e+02  1.5161980154e+02  4.8000000000e+00 0. 9.
      -24     2     4     0     0     0  6.2394251547e+00 -1.7867883059e+01  9.5962480540e+00  8.3337349079e+01  8.0590533585e+01  3.817335e-13 9.
       -5     1     4     0     0   102  9.8142952127e+01  4.0250547191e+01 -6.1429209792e+01  1.2267327915e+02  4.8000000000e+00 0. 9.
      -13     1     5     0     0     0  1.5227111839e+01 -5.6256720609e+00 -1.7671930968e+02  1.7746334466e+02  1.0566000000e-01  1.883999e+05 9.
       14     1     5     0     0     0 -1.3500174302e+01 -3.3333738312e+01 -5.9449055270e+01  6.9480810218e+01  0.0000000000e+00 0. 9.
        3     1     7     0   104     0  3.5736431964e+01 -2.5086345676e+01 -1.2881995930e+01  4.5525961034e+01  5.0000000000e-01 0. 9.
       -4     1     7     0     0   104 -2.9497006810e+01  7.2184626169e+00  2.2478243984e+01  3.7811388045e+01  1.5000000000e+00 0. 9.
#pdf   21   21  1.612730e-02  7.688418e-02  1.993834e+02  5.540755e+00  1.152945e+00
</event>
<event>
    12  9999  1.000000e+00  2.218989e+02  7.897117e-03  1.044187e-01
       21    -1     0     0   101   102  0.0000000000e+00  0.0000000000e+00  6.6268263162e+01  6.6268263162e+01  0.0000000000e+00 0. 9.
       21    -1     0     0   103   101  0.0000000000e+00  0.0000000000e+00 -1.0525759334e+03  1.0525759334e+03  0.0000000000e+00 0. 9.
        6     2     1     2   103     0  8.8903664188e+01 -1.1026072581e+02 -7.9656586458e+02  8.2690217767e+02  1.7084714121e+02  7.228976e-14 9.
       -6     2     1     2     0   102 -8.8903664188e+01  1.1026072581e+02 -1.8974180565e+02  2.9194201889e+02  1.7078319712e+02  3.146029e-13 9.
       24     2     3     0     0     0  6.8310737788e+00  4.9511217296e+00 -2.8402595761e+02  2.9517868172e+02  7.9928295178e+01  5.976714e-14 9.
        5     1     3     0   103     0  8.2072590410e+01 -1.1521184754e+02 -5.1253990696e+02  5.3172349595e+02  4.8000000000e+00 0. 9.
      -24     2     4     0     0     0 -1.0928041374e+02  4.7836137698e+01 -1.7223854117e+02  2.2381386472e+02  7.8714840266e+01  2.860727e-14 9.
       -5     1     4     0     0   102  2.0376749550e+01  6.2424588111e+01 -1.7503264482e+01  6.8128154170e+01  4.8000000000e+00 0. 9.
       -1     1     5     0     0   104  2.4416227456e+01 -3.6785576401e+00 -2.6989638155e+02  2.7102370676e+02  3.3000000000e-01 0. 9.
        2     1     5     0   104     0 -1.7585153678e+01  8.6296793697e+00 -1.4129576060e+01  2.4154974964e+01  3.3000000000e-01 0. 9.
        3     1     7     0   105     0 -1.6604980766e+01 -1.3263718938e+01 -6.9051124602e+01  7.2249286745e+01  5.0000000000e-01 0. 9.
       -4     1     7     0     0   105 -9.2675432973e+01  6.1099856636e+01 -1.0318741657e+02  1.5156457797e+02  1.5000000000e+00 0. 9.
#pdf   21   21  1.019512e-02  1.619348e-01  2.218743e+02  8.004846e+00  3.864381e-01
</event>
<event>
    12  9999  1.000000e+00  2.301583e+02  7.900423e-03  1.039636e-01
       21    -1     0     0   101   102  0.0000000000e+00  0.0000000000e+00  2.0144023453e+02  2.0144023453e+02  0.0000000000e+00 0. 9.
       21    -1     0     0   103   101  0.0000000000e+00  0.0000000000e+00 -2.7597544616e+02  2.7597544616e+02  0.0000000000e+00 0. 9.
        6     2     1     2   103     0  2.8940910393e+01  1.5031135102e+02 -8.9192117664e+01  2.4750926852e+02  1.7284248786e+02  1.571244e-13 9.
       -6     2     1     2     0   102 -2.8940910393e+01 -1.5031135102e+02  1.4656906036e+01  2.2990641217e+02  1.7091241887e+02  1.150556e-13 9.
       24     2     3     0     0     0 -2.3648082871e+01  1.5380825142e+02 -8.3313419775e+01  1.9426051630e+02  8.1116041871e+01  2.551513e-13 9.
        5     1     3     0   103     0  5.2588993264e+01 -3.4969003949e+00 -5.8786978894e+00  5.3248752228e+01  4.8000000000e+00 0. 9.
      -24     2     4     0     0     0 -4.3911741511e+01 -9.8246159771e+01 -5.1750108487e+01  1.4407028049e+02  8.0607834855e+01  2.298137e-14 9.
       -5     1     4     0     0   102  1.4970831118e+01 -5.2065191254e+01  6.6407014523e+01  8.5836131684e+01  4.8000000000e+00 0. 9.
      -15     1     5     0     0     0 -3.5904766072e+01  4.0036272998e+01 -5.3790699909e+01  7.6083190445e+01  1.7768200000e+00  7.776915e-02 9.
       16     1     5     0     0     0  1.2256683201e+01  1.1377197842e+02 -2.9522719865e+01  1.1817732585e+02  0.0000000000e+00 0. 9.
        3     1     7     0   104     0 -3.7318722499e+01 -4.0788813049e+01  1.3453526493e+01  5.6900454251e+01  5.0000000000e-01 0. 9.
       -4     1     7     0     0   104 -6.5930190121e+00 -5.7457346722e+01 -6.5203634980e+01  8.7169826239e+01  1.5000000000e+00 0. 9.
#pdf   21   21  3.099081e-02  4.245776e-02  2.294387e+02  3.077575e+00  2.244021e+00
</event>
<event>
    12  9999  1.000000e+00  1.853470e+02  7.880874e-03  1.067207e-01
       21    -1     0     0   101   102  0.0000000000e+00  0.0000000000e+00  8.8411175477e+02  8.8411175477e+02  0.0000000000e+00 0. 9.
       21    -1     0     0   102   103  0.0000000000e+00  0.0000000000e+00 -4.3490203235e+01  4.3490203235e+01  0.0000000000e+00 0. 9.
        6     2     1     2   101     0 -1.0448534157e+01 -6.7769965205e+01  5.7930722130e+02  6.0945024426e+02  1.7643923465e+02  9.326856e-14 9.
       -6     2     1     2     0   103  1.0448534157e+01  6.7769965205e+01  2.6131433023e+02  3.1815171375e+02  1.6802795519e+02  5.386966e-14 9.
       24     2     3     0     0     0 -3.9381687331e+01 -1.0560531779e+02  3.7851584888e+02  4.0303111604e+02  8.0351927141e+01  2.983661e-14 9.
        5     1     3     0   101     0  2.8933153174e+01  3.7835352586e+01  2.0079137242e+02  2.0641912822e+02  4.8000000000e+00 0. 9.
      -24     2     4     0     0     0  6.6668612607e-01  1.9174558985e+01  2.1716974695e+02  2.5160111428e+02  1.2558787175e+02  1.146653e-13 9.
       -5     1     4     0     0   103  9.7818480305e+00  4.8595406220e+01  4.4144583280e+01  6.6550599468e+01  4.8000000000e+00 0. 9.
       -1     1     5     0     0   104  2.2242836172e+01 -5.1838385856e+01  1.4331810219e+02  1.5401996405e+02  3.3000000000e-01 0. 9.
        2     1     5     0   104     0 -6.1624523502e+01 -5.3766931934e+01  2.3519774669e+02  2.4901115199e+02  3.3000000000e-01 0. 9.
        3     1     7     0   105     0 -3.2467874336e+01  7.2923365474e+00  1.7578039926e+00  3.3326879709e+01  5.0000000000e-01 0. 9.
       -4     1     7     0     0   105  3.3134560462e+01  1.1882222438e+01  2.1541194296e+02  2.1827423457e+02  1.5000000000e+00 0. 9.
#pdf   21   21  1.360172e-01  6.690800e-03  1.814809e+02  5.282748e-01  1.092182e+01
</event>
<event>
    12  9999  1.000000e+00  5.780728e+02  7.984660e-03  9.368755e-02
       21    -1     0     0   101   102  0.0000000000e+00  0.0000000000e+00  1.3947569757e+03  1.3947569757e+03  0.0000000000e+00 0. 9.
       21    -1     0     0   102   103  0.0000000000e+00  0.0000000000e+00 -6.0430558717e+02  6.0430558717e+02  0.0000000000e+00 0. 9.
        6     2     1     2   101     0 -2.1742485793e+02 -5.0655639803e+02  1.1714697584e+03  1.3059059026e+03  1.7080947943e+02  1.417838e-13 9.
       -6     2     1     2     0   103  2.1742485793e+02  5.0655639803e+02 -3.8101836992e+02  6.9315666026e+02  1.7725181018e+02  2.177898e-13 9.
       24     2     3     0     0     0 -2.1506322032e+02 -4.0161516574e+02  1.0364434282e+03  1.1348112229e+03  7.7682698478e+01  6.215713e-14 9.
        5     1     3     0   101     0 -2.3616376083e+00 -1.0494123229e+02  1.3502633024e+02  1.7109467971e+02  4.8000000000e+00 0. 9.
      -24     2     4     0     0     0  8.1204693470e+01  1.3334251158e+02 -1.6366754554e+02  2.4026709413e+02  8.1035692283e+01  4.572773e-14 9.
       -5     1     4     0     0   103  1.3622016446e+02  3.7321388645e+02 -2.1735082437e+02  4.5288956612e+02  4.8000000000e+00 0. 9.
       -3     1     5     0     0   104 -6.3086465309e+01 -7.5451410671e+01  1.6640185189e+02  1.9329418975e+02  5.0000000000e-01 0. 9.
        4     1     5     0   104     0 -1.5197675502e+02 -3.2616375507e+02  8.7004157630e+02  9.4151703314e+02  1.5000000000e+00 0. 9.
       11     1     7     0     0     0  8.3723647954e+01  1.3058861266e+02 -1.1916972127e+02  1.9561302986e+02  5.1100000000e-04 0. 9.
      -12     1     7     0     0     0 -2.5189544841e+00  2.7538989166e+00 -4.4497824275e+01  4.4654064273e+01  0.0000000000e+00 0. 9.
#pdf   21   21  2.145780e-01  9.297009e-02  5.771038e+02  1.919416e-01  8.137387e-01
</event>
<event>
    12  9999  1.000000e+00  1.922347e+02  7.884162e-03  1.062457e-01
       21    -1     0     0   101   102  0.0000000000e+00  0.0000000000e+00  8.5329906239e+01  8.5329906239e+01  0.0000000000e+00 0. 9.
       21    -1     0     0   102   103  0.0000000000e+00  0.0000000000e+00 -5.2978279380e+02  5.2978279380e+02  0.0000000000e+00 0. 9.
        6     2     1     2   101     0  8.9843436951e+01  1.2350230361e+01 -9.2010412136e+01  2.1424413964e+02  1.7091010524e+02  2.193752e-13 9.
       -6     2     1     2     0   103 -8.9843436951e+01 -1.2350230361e+01 -3.5244247542e+02  4.0086856040e+02  1.6809382166e+02  2.435033e-13 9.
       24     2     3     0     0     0  1.1063699839e+01 -1.1605511098e+01 -1.0247765616e+02  1.3110132440e+02  8.0179759943e+01  9.270642e-14 9.
        5     1     3     0   101     0  7.8779737113e+01  2.3955741459e+01  1.0467244027e+01  8.3142815239e+01  4.8000000000e+00 0. 9.
      -24     2     4     0     0     0 -5.0848206402e+01 -2.3254336972e+01 -3.4534257846e+02  3.5948044515e+02  8.2694556474e+01  7.542547e-15 9.
       -5     1     4     0     0   103 -3.8995230550e+01  1.0904106612e+01 -7.0998969674e+00  4.1388115246e+01  4.8000000000e+00 0. 9.
       -3     1     5     0     0   104  4.4230410746e+01 -1.7377061441e+01 -6.7289160461e+01  8.2379442913e+01  5.0000000000e-01 0. 9.
        4     1     5     0   104     0 -3.3166710907e+01  5.7715503427e+00 -3.5188495702e+01  4.8721881486e+01  1.5000000000e+00 0. 9.
        3     1     7     0   105     0 -5.0058866361e+01  1.1041858362e+01 -2.8890125585e+02  2.9341437997e+02  5.0000000000e-01 0. 9.
       -4     1     7     0     0   105 -7.8934004038e-01 -3.4296195334e+01 -5.6441322604e+01  6.6066065187e+01  1.5000000000e+00 0. 9.
#pdf   21   21  1.312768e-02  8.150505e-02  1.909971e+02  6.556645e+00  1.075531e+00
</event>
<event>
    12  9999  1.000000e+00  2.769064e+02  7.917194e-03  1.017209e-01
       21    -1     0     0   101   102  0.0000000000e+00  0.0000000000e+00  1.8421552791e+03  1.8421552791e+03  0.0000000000e+00 0. 9.
       21    -1     0     0   103   101  0.0000000000e+00  0.0000000000e+00 -4.2533843802e+01  4.2533843802e+01  0.0000000000e+00 0. 9.
        6     2     1     2   103     0 -1.0835940636e+02 -1.8867333844e+02  1.0359812238e+03  1.0722143706e+03  1.7043230567e+02  1.599920e-13 9.
       -6     2     1     2     0   102  1.0835940636e+02  1.8867333844e+02  7.6364021151e+02  8.1247475234e+02  1.7213210325e+02  1.416424e-13 9.
       24     2     3     0     0     0 -8.1157386363e+01 -3.4038956627e+01  4.5347691083e+02  4.6890180104e+02  8.0513467399e+01  8.167554e-14 9.
        5     1     3     0   103     0 -2.7202019994e+01 -1.5463438181e+02  5.8250431298e+02  6.0331256955e+02  4.8000000000e+00 0. 9.
      -24     2     4     0     0     0  9.2695006747e+01  6.9850500291e+01  5.4791922735e+02  5.6564926077e+02  7.9196905521e+01  1.054212e-13 9.
       -5     1     4     0     0   102  1.5664399610e+01  1.1882283815e+02  2.1572098416e+02  2.4682549157e+02  4.8000000000e+00 0. 9.
       -1     1     5     0     0   104 -3.8862642191e+01 -5.5559607850e+01  2.0464338100e+02  2.1558338820e+02  3.3000000000e-01 0. 9.
        2     1     5     0   104     0 -4.2294744172e+01  2.1520651223e+01  2.4883352984e+02  2.5331841284e+02  3.3000000000e-01 0. 9.
        1     1     7     0   105     0  7.5625313997e+01  8.1169335847e+00  3.1809611539e+02  3.2706317471e+02  3.3000000000e-01 0. 9.
       -4     1     7     0     0   105  1.7069692750e+01  6.1733566706e+01  2.2982311196e+02  2.3858608606e+02  1.5000000000e+00 0. 9.
#pdf   21   21  2.834085e-01  6.543668e-03  2.763812e+02  1.107309e-01  1.121612e+01
</event>
<event>
    12  9999  1.000000e+00  1.932347e+02  7.884629e-03  1.061786e-01
       21    -1     0     0   101   102  0.0000000000e+00  0.0000000000e+00  7.4799599618e+02  7.4799599618e+02  0.0000000000e+00 0. 9.
       21    -1     0     0   103   101  0.0000000000e+00  0.0000000000e+00 -1.6428370342e+02  1.6428370342e+02  0.0000000000e+00 0. 9.
        6     2     1     2   103     0  6.9050918307e+01 -6.1168259515e+01 -8.8384834664e+01  2.1315760340e+02  1.7063030093e+02  4.550986e-13 9.
       -6     2     1     2     0   102 -6.9050918307e+01  6.1168259515e+01  6.7209712743e+02  6.9912209620e+02  1.6896026576e+02  2.978521e-13 9.
       24     2     3     0     0     0  2.7280942307e+01 -2.7027918344e+01 -1.2117345295e+02  1.4984546176e+02  7.9346698265e+01  5.836963e-14 9.
        5     1     3     0   103     0  4.1769976000e+01 -3.4140341171e+01  3.2788618287e+01  6.3312141643e+01  4.8000000000e+00 0. 9.
      -24     2     4     0     0     0  5.1335596947e+00  8.0506291777e+01  4.3304162451e+02  4.4802874754e+02  8.1835772175e+01  2.487719e-15 9.
       -5     1     4     0     0   102 -7.4184478002e+01 -1.9338032262e+01  2.3905550291e+02  2.5109334866e+02  4.8000000000e+00 0. 9.
      -11     1     5     0     0     0  2.4129892975e+01  9.9747793583e-01  1.2819475740e+00  2.4184500967e+01  5.1100000000e-04 0. 9.
       12     1     5     0     0     0  3.1510493327e+00 -2.8025396280e+01 -1.2245540052e+02  1.2566096079e+02  0.0000000000e+00 0. 9.
        1     1     7     0   104     0 -3.5282327624e+01  4.1506644577e+01  2.7394753567e+02  2.7931166353e+02  3.3000000000e-01 0. 9.
       -2     1     7     0     0   104  4.0415887319e+01  3.8999647200e+01  1.5909408885e+02  1.6871708401e+02  3.3000000000e-01 0. 9.
#pdf   21   21  1.150763e-01  2.527442e-02  1.925024e+02  6.738539e-01  3.749479e+00
</event>
<event>
    12  9999  1.000000e+00  1.848535e+02  7.880634e-03  1.067555e-01
       21    -1     0     0   101   102  0.0000000000e+00  0.0000000000e+00  2.7317913464e+02  2.7317913464e+02  0.0000000000e+00 0. 9.
       21    -1     0     0   103   101  0.0000000000e+00  0.0000000000e+00 -1.3935781661e+02  1.3935781661e+02  0.0000000000e+00 0. 9.
        6     2     1     2   103     0 -6.2101657105e+01 -1.5228341066e+01  1.9196145246e+00  1.8778132879e+02  1.7654921222e+02  2.866131e-13 9.
       -6     2     1     2     0   102  6.2101657105e+01  1.5228341066e+01  1.3190170351e+02  2.2475562246e+02  1.7037755795e+02  1.244475e-14 9.
       24     2     3     0     0     0 -1.0493997868e+02  1.7154094862e+01 -7.6650239236e+00  1.3302140506e+02  7.9556769141e+01  4.760396e-14 9.
        5     1     3     0   103     0  4.2838321578e+01 -3.2382435928e+01  9.5846384482e+00  5.4759923725e+01  4.8000000000e+00 0. 9.
      -24     2     4     0     0     0  5.9375317308e+00  6.2979870894e+00 -4.5471283485e-01  8.0618808469e+01  8.0151522698e+01  9.537663e-14 9.
       -5     1     4     0     0   102  5.6164125374e+01  8.9303539766e+00  1.3235641634e+02  1.4413681399e+02  4.8000000000e+00 0. 9.
       -3     1     5     0     0   104 -2.7913923325e+01  1.4584489450e+01  3.3209411231e+01  4.5771273111e+01  5.0000000000e-01 0. 9.
        4     1     5     0   104     0 -7.7026055358e+01  2.5696054117e+00 -4.0874435155e+01  8.7250131950e+01  1.5000000000e+00 0. 9.
        1     1     7     0   105     0 -3.0394393667e+01  2.5360688955e+01 -8.4701209703e-02  3.9586611183e+01  3.3000000000e-01 0. 9.
       -2     1     7     0     0   105  3.6331925398e+01 -1.9062701865e+01 -3.7001162515e-01  4.1032197286e+01  3.3000000000e-01 0. 9.
#pdf   21   21  4.202756e-02  2.143966e-02  1.819809e+02  2.296932e+00  4.349453e+00
</event>
<event>
    12  9999  1.000000e+00  2.720206e+02  7.915577e-03  1.019325e-01
       21    -1     0     0   101   102  0.0000000000e+00  0.0000000000e+00  1.6523269852e+02  1.6523269852e+02  0.0000000000e+00 0. 9.
       21    -1     0     0   102   103  0.0000000000e+00  0.0000000000e+00 -8.7574073232e+02  8.7574073232e+02  0.0000000000e+00 0. 9.
        6     2     1     2   101     0 -2.0923564982e+02  2.2167674449e+01  9.2444173342e+00  2.7117702393e+02  1.7082317204e+02  1.003806e-13 9.
       -6     2     1     2     0   103  2.0923564982e+02 -2.2167674449e+01 -7.1975245113e+02  7.6979640691e+02  1.7398837383e+02  1.674009e-13 9.
       24     2     3     0     0     0 -1.2413055365e+02 -3.7887309361e+01 -3.8028723368e+01  1.5669004517e+02  7.9131181540e+01  4.085057e-14 9.
        5     1     3     0   101     0 -8.5105096168e+01  6.0054983810e+01  4.7273140702e+01  1.1448697876e+02  4.8000000000e+00 0. 9.
      -24     2     4     0     0     0  2.1770588117e+02  1.1618258997e+01 -5.5545303398e+02  6.0177684675e+02  7.7951688170e+01  8.724715e-14 9.
       -5     1     4     0     0   103 -8.4702313503e+00 -3.3785933446e+01 -1.6429941716e+02  1.6801956016e+02  4.8000000000e+00 0. 9.
       -1     1     5     0     0   104 -4.8061244757e+01 -5.3649949750e+01 -4.7809104164e+00  7.2188408766e+01  3.3000000000e-01 0. 9.
        2     1     5     0   104     0 -7.6069308897e+01  1.5762640389e+01 -3.3247812952e+01  8.4501636399e+01  3.3000000000e-01 0. 9.
       13     1     7     0     0     0  1.8784356029e+02  3.4829958520e+01 -4.9352888872e+02  5.2921555563e+02  1.0566000000e-01  1.052888e+05 9.
      -14     1     7     0     0     0  2.9862320885e+01 -2.3211699523e+01 -6.1924145256e+01  7.2561291120e+01  0.0000000000e+00 0. 9.
#pdf   21   21  2.542042e-02  1.347293e-01  2.710194e+02  3.689426e+00  5.091587e-01
</event>
<event>
    12  9999  1.000000e+00  2.137634e+02  7.893741e-03  1.048881e-01
        2    -1     0     0   101     0  0.0000000000e+00  0.0000000000e+00  2.3517683604e+03  2.3517683604e+03  0.0000000000e+00 0. 9.
       -2    -1     0     0     0   102  0.0000000000e+00  0.0000000000e+00 -1.9624690602e+01  1.9624690602e+01  0.0000000000e+00 0. 9.
        6     2     1     2   101     0 -4.3860954136e+01 -1.1975025851e+02  1.2849408523e+03  1.3026235508e+03  1.7173005999e+02  1.764331e-13 9.
       -6     2     1     2     0   102  4.3860954136e+01  1.1975025851e+02  1.0472028175e+03  1.0687695002e+03  1.7137851630e+02  5.736580e-14 9.
       24     2     3     0     0     0 -7.3371315978e+01 -1.4000947752e+02  1.0501892669e+03  1.0651100896e+03  8.1092557253e+01  9.330367e-15 9.
        5     1     3     0   101     0  2.9510361842e+01  2.0259219006e+01  2.3475158534e+02  2.3751346115e+02  4.8000000000e+00 0. 9.
      -24     2     4     0     0     0  8.9853010306e+01  9.3408134010e+01  6.3235007846e+02  6.5051716984e+02  8.0667983561e+01  2.008332e-13 9.
       -5     1     4     0     0   102 -4.5992056170e+01  2.6342124500e+01  4.1485273902e+02  4.1825233033e+02  4.8000000000e+00 0. 9.
       -3     1     5     0     0   103 -8.4457575082e-01 -5.9422484092e+01  5.5591564258e+02  5.5908335388e+02  5.0000000000e-01 0. 9.
        4     1     5     0   103     0 -7.2526740227e+01 -8.0586993425e+01  4.9427362436e+02  5.0602673575e+02  1.5000000000e+00 0. 9.
       13     1     7     0     0     0  2.6298744546e+01  6.5027525758e+01  4.4813234963e+02  4.5358881933e+02  1.0566000000e-01  5.246493e+04 9.
      -14     1     7     0     0     0  6.3554265760e+01  2.8380608253e+01  1.8421772883e+02  1.9692835051e+02  0.0000000000e+00 0. 9.
#pdf    2   -2  3.618105e-01  3.019183e-03  2.136223e+02  2.251481e-01  9.874028e-01
</event>
<event>
    12  9999  1.000000e+00  1.995620e+02  7.887535e-03  1.057633e-01
       21    -1     0     0   101   102  0.0000000000e+00  0.0000000000e+00  3.2944349854e+02  3.2944349854e+02  0.0000000000e+00 0. 9.
       21    -1     0     0   103   101  0.0000000000e+00  0.0000000000e+00 -1.2133049256e+02  1.2133049256e+02  0.0000000000e+00 0. 9.
        6     2     1     2   103     0  5.7976371300e+01 -8.8203437557e+01  9.0024766732e+01  2.1820403148e+02  1.6842634801e+02  3.057402e-13 9.
       -6     2     1     2     0   102 -5.7976371300e+01  8.8203437557e+01  1.1808823925e+02  2.3256995962e+02  1.7030222501e+02  1.370206e-13 9.
       24     2     3     0     0     0  5.8662646361e+01 -6.4728815501e+01  1.2685679852e+02  1.7425898148e+02  8.1501040868e+01  3.331155e-14 9.
        5     1     3     0   103     0 -6.8627506150e-01 -2.3474622057e+01 -3.6832031787e+01  4.3945050002e+01  4.8000000000e+00 0. 9.
      -24     2     4     0     0     0 -6.8552538993e+01  7.8587295428e+00  1.0583272876e+02  1.5047023389e+02  8.1728297278e+01  5.089216e-14 9.
       -5     1     4     0     0   102  1.0576167693e+01  8.0344708015e+01  1.2255510487e+01  8.2099725738e+01  4.8000000000e+00 0. 9.
       -3     1     5     0     0   104  2.1587458605e+01  1.8429067065e+01  2.8385062800e+01  4.0144871056e+01  5.0000000000e-01 0. 9.
        2     1     5     0   104     0  3.7075187756e+01 -8.3157882566e+01  9.8471735719e+01  1.3411411043e+02  3.3000000000e-01 0. 9.
        1     1     7     0   105     0  1.3476058236e+01 -1.5624548934e+01  2.9390743925e+01  3.5911772491e+01  3.3000000000e-01 0. 9.
       -2     1     7     0     0   105 -8.2028597228e+01  2.3483278477e+01  7.6441984836e+01  1.1455846139e+02  3.3000000000e-01 0. 9.
#pdf   21   21  5.068362e-02  1.866623e-02  1.987676e+02  1.873623e+00  4.897375e+00
</event>
<event>
    12  9999  1.000000e+00  1.762417e+02  7.876340e-03  1.073835e-01
       21    -1     0     0   101   102  0.0000000000e+00  0.0000000000e+00  1.8283827291e+02  1.8283827291e+02  0.0000000000e+00 0. 9.
       21    -1     0     0   103   101  0.0000000000e+00  0.0000000000e+00 -1.8161025074e+02  1.8161025074e+02  0.0000000000e+00 0. 9.
        6     2     1     2   103     0 -2.0739177175e+01 -4.2090985669e+01 -4.5690124424e+01  1.8229878677e+02  1.7012788026e+02  7.639328e-14 9.
       -6     2     1     2     0   102  2.0739177175e+01  4.2090985669e+01  4.6918146594e+01  1.8214973689e+02  1.6963327982e+02  2.644121e-13 9.
       24     2     3     0     0     0 -5.4451879159e+01 -7.9165386143e+01 -4.1204478408e+01  1.3175951030e+02  8.0190984572e+01  9.470113e-14 9.
        5     1     3     0   103     0  3.3712701984e+01  3.7074400474e+01 -4.4856460168e+00  5.0539276466e+01  4.8000000000e+00 0. 9.
      -24     2     4     0     0     0  6.5906543914e+01  5.1355934009e+01  8.6150516808e-01  1.1680308812e+02  8.1615652384e+01  1.277150e-14 9.
       -5     1     4     0     0   102 -4.5167366740e+01 -9.2649483403e+00  4.6056641426e+01  6.5346648770e+01  4.8000000000e+00 0. 9.
      -11     1     5     0     0     0 -3.6970872235e+01  5.8799216623e+00 -1.9744744809e+01  4.2323442918e+01  5.1100000000e-04 0. 9.
       12     1     5     0     0     0 -1.7481006924e+01 -8.5045307805e+01 -2.1459733598e+01  8.9436067382e+01  0.0000000000e+00 0. 9.
        3     1     7     0   104     0  1.5772288030e+01 -2.1247596272e+01  9.5404492005e+00  2.8133531381e+01  5.0000000000e-01 0. 9.
       -4     1     7     0     0   104  5.0134255884e+01  7.2603530281e+01 -8.6789440324e+00  8.8669556736e+01  1.5000000000e+00 0. 9.
#pdf   21   21  2.812897e-02  2.794004e-02  1.760034e+02  3.406559e+00  3.427972e+00
</event>
<event>
    12  9999  1.000000e+00  1.693158e+02  7.872736e-03  1.079315e-01
        3    -1     0     0   101     0  0.0000000000e+00  0.0000000000e+00  1.1379303383e+02  1.1379303383e+02  0.0000000000e+00 0. 9.
       -3    -1     0     0     0   102  0.0000000000e+00  0.0000000000e+00 -3.7420453876e+02  3.7420453876e+02  0.0000000000e+00 0. 9.
        6     2     1     2   101     0 -1.0106709680e+02 -4.1159141018e+00 -2.4981972742e+02  2.8819045719e+02  1.0204089672e+02  1.299739e-13 9.
       -6     2     1     2     0   102  1.0106709680e+02  4.1159141018e+00 -1.0591777517e+01  1.9980711540e+02  1.7198604248e+02  1.882193e-14 9.
       24     2     3     0     0     0 -6.1291626121e+01 -8.9538375826e-01 -2.0070322604e+02  2.2472447740e+02  8.0385574905e+01  3.364136e-14 9.
        5     1     3     0   101     0 -3.9775470683e+01 -3.2205303435e+00 -4.9116501372e+01  6.3465979791e+01  4.8000000000e+00 0. 9.
      -24     2     4     0     0     0  1.1172160520e+02  2.9033134592e+01  3.7655060408e+01  1.4426268457e+02  7.7904933176e+01  2.601913e-14 9.
       -5     1     4     0     0   102 -1.0654508395e+01 -2.4917220490e+01 -4.8246837925e+01  5.5544430827e+01  4.8000000000e+00 0. 9.
       -3     1     5     0     0   103 -3.1250470614e+01  2.9353486489e+01 -1.6042256992e+02  1.6605381665e+02  5.0000000000e-01 0. 9.
        4     1     5     0   103     0 -3.0041155507e+01 -3.0248870247e+01 -4.0280656123e+01  5.8670660752e+01  1.5000000000e+00 0. 9.
        3     1     7     0   104     0  5.0463364941e+01  1.3792116094e+01 -2.2593967686e+01  5.6986937479e+01  5.0000000000e-01 0. 9.
       -4     1     7     0     0   104  6.1258240258e+01  1.5241018498e+01  6.0249028094e+01  8.7275747093e+01  1.5000000000e+00 0. 9.
#pdf    3   -3  1.750662e-02  5.756993e-02  1.436797e+02  2.391054e-01  8.442014e-02
</event>
<event>
    12  9999  1.000000e+00  1.869876e+02  7.881668e-03  1.066056e-01
       21    -1     0     0   101   102  0.0000000000e+00  0.0000000000e+00  5.8906218707e+01  5.8906218707e+01  0.0000000000e+00 0. 9.
       21    -1     0     0   103   101  0.0000000000e+00  0.0000000000e+00 -5.9795271248e+02  5.9795271248e+02  0.0000000000e+00 0. 9.
        6     2     1     2   103     0  3.8241265482e+01 -7.9701435819e+01 -2.5579360476e+02  3.2153542033e+02  1.7360859723e+02  3.305311e-13 9.
       -6     2     1     2     0   102 -3.8241265482e+01  7.9701435819e+01 -2.8325288902e+02  3.3532351086e+02  1.5618881056e+02  4.763699e-14 9.
       24     2     3     0     0     0  6.9885454295e+01 -2.8283123967e+01 -2.2009004034e+02  2.5122907644e+02  9.4828851972e+01  4.441729e-15 9.
        5     1     3     0   103     0 -3.1644188812e+01 -5.1418311852e+01 -3.5703564418e+01  7.0306343892e+01  4.8000000000e+00 0. 9.
      -24     2     4     0     0     0  4.7739761202e+00  9.5266521841e+01 -2.4654968395e+02  2.7647839063e+02  8.0963280553e+01  7.270651e-14 9.
       -5     1     4     0     0   102 -4.3015241603e+01 -1.5565086023e+01 -3.6703205072e+01  5.8845120236e+01  4.8000000000e+00 0. 9.
      -11     1     5     0     0     0  4.9166259399e+01  2.0164810785e+01 -4.9271136907e+01  7.2467824513e+01  5.1100000000e-04 0. 9.
       12     1     5     0     0     0  2.0719194896e+01 -4.8447934752e+01 -1.7081890343e+02  1.7876125192e+02  0.0000000000e+00 0. 9.
       11     1     7     0     0     0 -1.9872428939e+01  5.6064035040e+01 -6.0852765029e+01  8.5094937974e+01  5.1100000000e-04 0. 9.
      -12     1     7     0     0     0  2.4646405060e+01  3.9202486801e+01 -1.8569691892e+02  1.9138345265e+02  0.0000000000e+00 0. 9.
#pdf   21   21  9.062495e-03  9.199272e-02  1.794705e+02  8.734647e+00  9.249576e-01
</event>
<event>
    12  9999  1.000000e+00  1.809363e+02  7.878706e-03  1.070365e-01
       21    -1     0     0   101   102  0.0000000000e+00  0.0000000000e+00  2.5101682915e+02  2.5101682915e+02  0.0000000000e+00 0. 9.
       21    -1     0     0   102   103  0.0000000000e+00  0.0000000000e+00 -1.7608065013e+02  1.7608065013e+02  0.0000000000e+00 0. 9.
        6     2     1     2   101     0  4.3417228698e+01 -4.2051691285e+01  1.4630250524e+02  2.3315505767e+02  1.7118252653e+02  2.599781e-13 9.
       -6     2     1     2     0   103 -4.3417228698e+01  4.2051691285e+01 -7.1366326223e+01  1.9394242161e+02  1.6990323685e+02  1.378282e-13 9.
       24     2     3     0     0     0 -3.3491388434e+01 -5.0542918977e+01  5.8964800140e+01  1.1637341926e+02  7.9935382015e+01  3.947013e-14 9.
        5     1     3     0   101     0  7.6908617132e+01  8.4912276921e+00  8.7337705099e+01  1.1678163841e+02  4.8000000000e+00 0. 9.
      -24     2     4     0     0     0  2.3760622379e+00  3.6982606072e+01  1.5751315112e+01  9.5275078727e+01  8.6347425411e+01  1.151763e-13 9.
       -5     1     4     0     0   103 -4.5793290936e+01  5.0690852125e+00 -8.7117641335e+01  9.8667342882e+01  4.8000000000e+00 0. 9.
       -3     1     5     0     0   104  8.3259395378e+00 -3.9885937964e+01 -2.9872446003e+00  4.0858083004e+01  5.0000000000e-01 0. 9.
        4     1     5     0   104     0 -4.1817327972e+01 -1.0656981012e+01  6.1952044741e+01  7.5515336261e+01  1.5000000000e+00 0. 9.
        1     1     7     0   105     0  1.0397432045e+01  2.0699424760e+01 -3.4662855374e+01  4.1691668486e+01  3.3000000000e-01 0. 9.
       -2     1     7     0     0   105 -8.0213698075e+00  1.6283181312e+01  5.0414170486e+01  5.3583410241e+01  3.3000000000e-01 0. 9.
#pdf   21   21  3.861797e-02  2.708933e-02  1.803344e+02  2.504882e+00  3.525071e+00
</event>
<event>
    12  9999  1.000000e+00  2.022273e+02  7.888732e-03  1.055932e-01
       21    -1     0     0   101   102  0.0000000000e+00  0.0000000000e+00  3.7383835276e+02  3.7383835276e+02  0.0000000000e+00 0. 9.
       21    -1     0     0   103   101  0.0000000000e+00  0.0000000000e+00 -2.8687710947e+02  2.8687710947e+02  0.0000000000e+00 0. 9.
        6     2     1     2   103     0  7.9297490025e+01 -6.9657464064e+01 -2.1625220965e+02  2.9697004865e+02  1.7402855338e+02  1.090426e-13 9.
       -6     2     1     2     0   102 -7.9297490025e+01  6.9657464064e+01  3.0321345294e+02  3.6374541358e+02  1.7097389751e+02  1.267022e-13 9.
       24     2     3     0     0     0  6.3663290344e+01 -1.6637999615e+01 -3.4812720069e+01  1.0723649814e+02  7.7187456788e+01  6.985566e-14 9.
        5     1     3     0   103     0  1.5634199681e+01 -5.3019464449e+01 -1.8143948958e+02  1.8973355051e+02  4.8000000000e+00 0. 9.
      -24     2     4     0     0     0 -6.3923581556e+00  8.1684928852e+01  2.4047564421e+02  2.6669444343e+02  8.1142472567e+01  3.406109e-14 9.
       -5     1     4     0     0   102 -7.2905131870e+01 -1.2027464789e+01  6.2737808734e+01  9.7050970149e+01  4.8000000000e+00 0. 9.
       -3     1     5     0     0   104  2.3760654641e+01  2.0589557520e+01 -4.1682982978e+01  5.2213213441e+01  5.0000000000e-01 0. 9.
        4     1     5     0   104     0  3.9902635702e+01 -3.7227557135e+01  6.8702629090e+00  5.5023284696e+01  1.5000000000e+00 0. 9.
        1     1     7     0   105     0  3.6680614441e+01  3.4767580310e+01  1.2475908854e+02  1.3460754507e+02  3.3000000000e-01 0. 9.
       -2     1     7     0     0   105 -4.3072972596e+01  4.6917348542e+01  1.1571655567e+02  1.3208689836e+02  3.3000000000e-01 0. 9.
#pdf   21   21  5.751359e-02  4.413494e-02  2.009287e+02  1.626771e+00  2.171234e+00
</event>
<event>
    12  9999  1.000000e+00  2.031769e+02  7.889154e-03  1.055333e-01
       21    -1     0     0   101   102  0.0000000000e+00  0.0000000000e+00  1.0342274709e+03  1.0342274709e+03  0.0000000000e+00 0. 9.
       21    -1     0     0   103   101  0.0000000000e+00  0.0000000000e+00 -7.0866215218e+01  7.0866215218e+01  0.0000000000e+00 0. 9.
        6     2     1     2   103     0 -7.9383889090e+00  1.1126491569e+02  1.1624557020e+02  2.3390608245e+02  1.6957630534e+02  2.144737e-13 9.
       -6     2     1     2     0   102  7.9383889090e+00 -1.1126491569e+02  8.4711568548e+02  8.7118760367e+02  1.7005868610e+02  4.850566e-13 9.
       24     2     3     0     0     0  4.3036129286e+01  1.0537693750e+02  4.5907864406e+01  1.4670801682e+02  8.0369787877e+01  3.460499e-14 9.
        5     1     3     0   103     0 -5.0974518195e+01  5.8879781870e+00  7.0337705795e+01  8.7198065626e+01  4.8000000000e+00 0. 9.
      -24     2     4     0     0     0 -4.0769308792e+01 -2.8827311840e+01  5.7100010368e+02  5.7890135210e+02  8.1194252340e+01  5.293510e-14 9.
       -5     1     4     0     0   102  4.8707697701e+01 -8.2437603852e+01  2.7611558180e+02  2.9228625157e+02  4.8000000000e+00 0. 9.
       -1     1     5     0     0   104 -2.2767869598e+01  4.3027746151e+01  1.6762576420e+01  5.1486461261e+01  3.3000000000e-01 0. 9.
        2     1     5     0   104     0  6.5803998884e+01  6.2349191353e+01  2.9145287987e+01  9.5221555560e+01  3.3000000000e-01 0. 9.
        1     1     7     0   105     0 -3.0561952263e+01 -5.6853005812e+01  4.2627808762e+02  4.3113734944e+02  3.3000000000e-01 0. 9.
       -2     1     7     0     0   105 -1.0207356529e+01  2.8025693973e+01  1.4472201606e+02  1.4776400266e+02  3.3000000000e-01 0. 9.
#pdf   21   21  1.591119e-01  1.090249e-02  2.029754e+02  4.034907e-01  7.594143e+00
</event>
<event>
    12  9999  1.000000e+00  2.043511e+02  7.889675e-03  1.054597e-01
       21    -1     0     0   101   102  0.0000000000e+00  0.0000000000e+00  2.0545840358e+02  2.0545840358e+02  0.0000000000e+00 0. 9.
       21    -1     0     0   102   103  0.0000000000e+00  0.0000000000e+00 -5.2519744462e+02  5.2519744462e+02  0.0000000000e+00 0. 9.
        6     2     1     2   101     0  9.0543417005e+01 -6.5237894912e+01  1.2624124468e+02  2.3997783498e+02  1.7087544039e+02  8.379525e-14 9.
       -6     2     1     2     0   103 -9.0543417005e+01  6.5237894912e+01 -4.4598028573e+02  4.9067801322e+02  1.7150044928e+02  2.328926e-13 9.
       24     2     3     0     0     0 -7.7372575656e+00 -6.6036512122e+01  7.4212611446e+01  1.2866859251e+02  8.1408899473e+01  5.656229e-14 9.
        5     1     3     0   101     0  9.8280674570e+01  7.9861721051e-01  5.2028633235e+01  1.1130924247e+02  4.8000000000e+00 0. 9.
      -24     2     4     0     0     0  1.6674712754e+01  5.1502653240e+01 -2.0243489011e+02  2.2417888763e+02  7.9660025039e+01  1.013298e-13 9.
       -5     1     4     0     0   103 -1.0721812976e+02  1.3735241672e+01 -2.4354539561e+02  2.6649912558e+02  4.8000000000e+00 0. 9.
       -3     1     5     0     0   104 -3.2701710948e+01 -3.7047143195e+01  7.5643542246e+01  9.0355344067e+01  5.0000000000e-01 0. 9.
        4     1     5     0   104     0  2.4964453382e+01 -2.8989368927e+01 -1.4309308001e+00  3.8313248445e+01  1.5000000000e+00 0. 9.
       13     1     7     0     0     0  2.1441547131e+00  7.1113915367e+01 -1.3766527840e+02  1.5496298396e+02  1.0566000000e-01  2.770557e+06 9.
      -14     1     7     0     0     0  1.4530558041e+01 -1.9611262127e+01 -6.4769611718e+01  6.9215903673e+01  0.0000000000e+00 0. 9.
#pdf   21   21  3.160899e-02  8.079961e-02  2.040895e+02  3.034345e+00  1.080916e+00
</event>
<event>
    12  9999  1.000000e+00  1.915334e+02  7.883832e-03  1.062931e-01
       21    -1     0     0   101   102  0.0000000000e+00  0.0000000000e+00  9.0413175312e+01  9.0413175312e+01  0.0000000000e+00 0. 9.
       21    -1     0     0   102   103  0.0000000000e+00  0.0000000000e+00 -4.6332222999e+02  4.6332222999e+02  0.0000000000e+00 0. 9.
        6     2     1     2   101     0 -6.8267229388e+01 -5.6070832628e+01 -8.8642587574e+01  2.1082294356e+02  1.6965981351e+02  1.541497e-13 9.
       -6     2     1     2     0   103  6.8267229388e+01  5.6070832628e+01 -2.8426646711e+02  3.4291246175e+02  1.7022684635e+02  7.746858e-15 9.
       24     2     3     0     0     0 -9.0014855708e+01 -6.6979028067e+01 -2.1866597409e+01  1.3959078200e+02  8.0116002692e+01  1.128644e-14 9.
        5     1     3     0   101     0  2.1747626320e+01  1.0908195440e+01 -6.6775990164e+01  7.1232161562e+01  4.8000000000e+00 0. 9.
      -24     2     4     0     0     0  9.2220594447e+01 -6.8510475766e+00 -1.6178947417e+02  2.0306761734e+02  8.0678673572e+01  1.544849e-13 9.
       -5     1     4     0     0   103 -2.3953365059e+01  6.2921880204e+01 -1.2247699294e+02  1.3984484440e+02  4.8000000000e+00 0. 9.
       -3     1     5     0     0   104 -9.0035532485e+00 -9.4093184406e+00  2.6148026587e+01  2.9215895315e+01  5.0000000000e-01 0. 9.
        2     1     5     0   104     0 -8.1011302459e+01 -5.7569709627e+01 -4.8014623997e+01  1.1037488668e+02  3.3000000000e-01 0. 9.
        3     1     7     0   105     0  9.7381343780e+01 -5.4127509438e+00 -1.6829076940e+02  1.9451081475e+02  5.0000000000e-01 0. 9.
       -4     1     7     0     0   105 -5.1607493329e+00 -1.4382966328e+00  6.5012952347e+00  8.5568025927e+00  1.5000000000e+00 0. 9.
#pdf   21   21  1.390972e-02  7.128034e-02  1.912820e+02  6.257993e+00  1.269723e+00
</event>
<event>
    12  9999  1.000000e+00  2.281829e+02  7.899643e-03  1.040706e-01
       21    -1     0     0   101   102  0.0000000000e+00  0.0000000000e+00  5.5153687480e+01  5.5153687480e+01  0.0000000000e+00 0. 9.
       21    -1     0     0   103   101  0.0000000000e+00  0.0000000000e+00 -9.8939012815e+02  9.8939012815e+02  0.0000000000e+00 0. 9.
        6     2     1     2   103     0  1.6160573395e+02 -4.2790549163e+00 -5.6360799832e+02  6.0541831450e+02  1.5080661859e+02  1.050047e-12 9.
       -6     2     1     2     0   102 -1.6160573395e+02  4.2790549163e+00 -3.7062844235e+02  4.3912550113e+02  1.7126307222e+02  1.639805e-13 9.
       24     2     3     0     0     0  9.0869520384e+01 -1.5609522960e+01 -1.9524206721e+02  2.3012044531e+02  7.9592886624e+01  2.699641e-14 9.
        5     1     3     0   103     0  7.0736213562e+01  1.1330468043e+01 -3.6836593111e+02  3.7529786919e+02  4.8000000000e+00 0. 9.
      -24     2     4     0     0     0 -1.3431463435e+02 -2.9763180670e+01 -1.7159102922e+02  2.3530545857e+02  8.3659486020e+01  5.912741e-15 9.
       -5     1     4     0     0   102 -2.7291099596e+01  3.4042235587e+01 -1.9903741313e+02  2.0382004255e+02  4.8000000000e+00 0. 9.
       -1     1     5     0     0   104  2.1538385723e+01 -4.2037045657e+01 -6.7492409682e+01  8.2379302812e+01  3.3000000000e-01 0. 9.
        4     1     5     0   104     0  6.9331134660e+01  2.6427522697e+01 -1.2774965752e+02  1.4774114250e+02  1.5000000000e+00 0. 9.
        3     1     7     0   105     0 -5.3368739820e+01  1.0215461639e+01 -1.1898410476e+02  1.3080537157e+02  5.0000000000e-01 0. 9.
       -4     1     7     0     0   105 -8.0945894530e+01 -3.9978642309e+01 -5.2606924459e+01  1.0450008700e+02  1.5000000000e+00 0. 9.
#pdf   21   21  8.485183e-03  1.522139e-01  2.210822e+02  9.209235e+00  4.293354e-01
</event>
<event>
    12  9999  1.000000e+00  1.868096e+02  7.881582e-03  1.066180e-01
       21    -1     0     0   101   102  0.0000000000e+00  0.0000000000e+00  4.6274640131e+02  4.6274640131e+02  0.0000000000e+00 0. 9.
       21    -1     0     0   102   103  0.0000000000e+00  0.0000000000e+00 -9.6784058342e+01  9.6784058342e+01  0.0000000000e+00 0. 9.
        6     2     1     2   101     0 -3.1615332117e+01 -6.8558308900e+01  3.1426929781e+02  3.6548587159e+02  1.7063106353e+02  2.176224e-13 9.
       -6     2     1     2     0   103  3.1615332117e+01  6.8558308900e+01  5.1693045158e+01  1.9404458806e+02  1.7111797187e+02  1.275086e-14 9.
       24     2     3     0     0     0 -8.9363047212e+00  5.8054564407e+00  5.9672572979e+01  9.9240045003e+01  7.8576139506e+01  1.848599e-13 9.
        5     1     3     0   101     0 -2.2679027395e+01 -7.4363765341e+01  2.5459672483e+02  2.6624582659e+02  4.8000000000e+00 0. 9.
      -24     2     4     0     0     0  1.0641524899e+01 -2.9211710553e+01  3.8239434619e+01  9.3035098759e+01  7.8909499780e+01  3.414530e-14 9.
       -5     1     4     0     0   103  2.0973807217e+01  9.7770019454e+01  1.3453610540e+01  1.0100948931e+02  4.8000000000e+00 0. 9.
       -1     1     5     0     0   104  3.0674721112e+01 -1.5436452366e+01  2.5258889142e+01  4.2630305624e+01  3.3000000000e-01 0. 9.
        2     1     5     0   104     0 -3.9611025833e+01  2.1241908806e+01  3.4413683837e+01  5.6609739379e+01  3.3000000000e-01 0. 9.
        3     1     7     0   105     0 -3.1255761973e+01 -2.4537172380e+01  3.0621267137e+01  5.0168789959e+01  5.0000000000e-01 0. 9.
       -4     1     7     0     0   105  4.1897286872e+01 -4.6745381734e+00  7.6181674813e+00  4.2866308800e+01  1.5000000000e+00 0. 9.
#pdf   21   21  7.119175e-02  1.488986e-02  1.865871e+02  1.274202e+00  5.920833e+00
</event>
<event>
    12  9999  1.000000e+00  1.884259e+02  7.882358e-03  1.065057e-01
       21    -1     0     0   101   102  0.0000000000e+00  0.0000000000e+00  1.8475005744e+03  1.8475005744e+03  0.0000000000e+00 0. 9.
       21    -1     0     0   103   101  0.0000000000e+00  0.0000000000e+00 -2.8467616101e+01  2.8467616101e+01  0.0000000000e+00 0. 9.
        6     2     1     2   103     0  4.3208691855e+01 -6.5298348434e+01  3.8050111022e+02  4.2536966565e+02  1.7328413724e+02  1.309234e-13 9.
       -6     2     1     2     0   102 -4.3208691855e+01  6.5298348434e+01  1.4385318481e+03  1.4505985249e+03  1.6950320645e+02  3.421241e-13 9.
       24     2     3     0     0     0 -1.1644445852e+01 -9.6934262781e+01  2.7260290878e+02  3.0017078520e+02  7.9109481040e+01  5.220727e-14 9.
        5     1     3     0   103     0  5.4853137707e+01  3.1635914347e+01  1.0789820144e+02  1.2519888045e+02  4.8000000000e+00 0. 9.
      -24     2     4     0     0     0 -2.1058975810e+01 -2.3972417017e+01  9.0006449587e+02  9.0431104662e+02  8.1512054673e+01  1.520546e-13 9.
       -5     1     4     0     0   102 -2.2149716045e+01  8.9270765451e+01  5.3846735222e+02  5.4628747825e+02  4.8000000000e+00 0. 9.
       -3     1     5     0     0   104  1.9446971372e+00  2.4646374594e+00 -4.4730485945e+00  5.4876632997e+00  5.0000000000e-01 0. 9.
        4     1     5     0   104     0 -1.3589142989e+01 -9.9398900241e+01  2.7707595737e+02  2.9468312190e+02  1.5000000000e+00 0. 9.
        1     1     7     0   105     0  2.3192124294e+01 -1.8136258222e+01  6.2116044364e+02  6.2185786489e+02  3.3000000000e-01 0. 9.
       -2     1     7     0     0   105 -4.4251100104e+01 -5.8361587952e+00  2.7890405224e+02  2.8245318172e+02  3.3000000000e-01 0. 9.
#pdf   21   21  2.842309e-01  4.379633e-03  1.867142e+02  1.204706e-01  1.471587e+01
</event>
<event>
    12  9999  1.000000e+00  2.239249e+02  7.897939e-03  1.043051e-01
       21    -1     0     0   101   102  0.0000000000e+00  0.0000000000e+00  5.0496790359e+02  5.0496790359e+02  0.0000000000e+00 0. 9.
       21    -1     0     0   103   101  0.0000000000e+00  0.0000000000e+00 -2.6476029822e+02  2.6476029822e+02  0.0000000000e+00 0. 9.
        6     2     1     2   103     0  5.4805697227e+01  1.3083653025e+02 -1.8389062746e+02  2.9072253275e+02  1.7487700273e+02  2.088270e-13 9.
       -6     2     1     2     0   102 -5.4805697227e+01 -1.3083653025e+02  4.2409823282e+02  4.7900566907e+02  1.7165447218e+02  1.900737e-13 9.
       24     2     3     0     0     0 -1.2853483527e+01  7.6934941299e+01 -3.8395546474e+01  1.2138557688e+02  8.4711528457e+01  2.440070e-13 9.
        5     1     3     0   103     0  6.7659180754e+01  5.3901588950e+01 -1.4549508098e+02  1.6933695587e+02  4.8000000000e+00 0. 9.
      -24     2     4     0     0     0 -1.1153024807e+01 -1.4035648433e+02  3.9272142399e+02  4.2419937867e+02  7.6750656981e+01  5.222068e-14 9.
       -5     1     4     0     0   102 -4.3652672420e+01  9.5199540774e+00  3.1376808836e+01  5.4806290403e+01  4.8000000000e+00 0. 9.
       -3     1     5     0     0   104  3.4539369456e+01  4.1849340673e+01 -2.9403310064e+01  6.1718230693e+01  5.0000000000e-01 0. 9.
        4     1     5     0   104     0 -4.7392852982e+01  3.5085600626e+01 -8.9922364107e+00  5.9667346185e+01  1.5000000000e+00 0. 9.
       13     1     7     0     0     0 -1.7510423508e+01 -6.6497151999e+01  9.4306223602e+01  1.1671401428e+02  1.0566000000e-01  2.023032e+06 9.
      -14     1     7     0     0     0  6.3573987005e+00 -7.3859332328e+01  2.9841520039e+02  3.0748536439e+02  0.0000000000e+00 0. 9.
#pdf   21   21  7.768737e-02  4.073235e-02  2.226817e+02  1.126903e+00  2.346835e+00
</event>
<event>
    12  9999  1.000000e+00  1.790141e+02  7.877745e-03  1.071772e-01
       21    -1     0     0   101   102  0.0000000000e+00  0.0000000000e+00  9.4394673450e+01  9.4394673450e+01  0.0000000000e+00 0. 9.
       21    -1     0     0   103   101  0.0000000000e+00  0.0000000000e+00 -6.8547306165e+02  6.8547306165e+02  0.0000000000e+00 0. 9.
        6     2     1     2   103     0  3.9558701969e+01  3.2415470236e+01 -5.7257265146e+02  5.9990664912e+02  1.7156017268e+02  6.708498e-15 9.
       -6     2     1     2     0   102 -3.9558701969e+01 -3.2415470236e+01 -1.8505736738e+01  1.7996108597e+02  1.7154555244e+02  1.836349e-13 9.
       24     2     3     0     0     0  8.4705523261e+01  1.2482954449e+01 -4.8788813260e+02  5.0177383915e+02  8.0070630717e+01  2.537911e-13 9.
        5     1     3     0   103     0 -4.5146821292e+01  1.9932515788e+01 -8.4684518865e+01  9.8132809976e+01  4.8000000000e+00 0. 9.
      -24     2     4     0     0     0 -2.4435221379e+01  1.0763697686e+01 -7.0984393103e+01  1.1017419909e+02  7.9916411632e+01  9.605985e-14 9.
       -5     1     4     0     0   102 -1.5123480590e+01 -4.3179167922e+01  5.2478656366e+01  6.9786886888e+01  4.8000000000e+00 0. 9.
       -3     1     5     0     0   104  6.6487637477e+01  1.0269759614e+01 -4.7389560968e+02  4.7864744100e+02  5.0000000000e-01 0. 9.
        4     1     5     0   104     0  1.8217885784e+01  2.2131948346e+00 -1.3992522912e+01  2.3126398147e+01  1.5000000000e+00 0. 9.
        1     1     7     0   105     0 -4.1995467592e+01  2.3653508013e+01 -1.5603712707e+01  5.0662535367e+01  3.3000000000e-01 0. 9.
       -2     1     7     0     0   105  1.7560246213e+01 -1.2889810327e+01 -5.5380680396e+01  5.9511663718e+01  3.3000000000e-01 0. 9.
#pdf   21   21  1.452226e-02  1.054574e-01  1.790071e+02  6.043176e+00  7.688523e-01
</event>
<event>
    12  9999  1.000000e+00  1.784987e+02  7.877485e-03  1.072152e-01
       21    -1     0     0   101   102  0.0000000000e+00  0.0000000000e+00  2.6868635659e+02  2.6868635659e+02  0.0000000000e+00 0. 9.
       21    -1     0     0   103   101  0.0000000000e+00  0.0000000000e+00 -1.2168208229e+02  1.2168208229e+02  0.0000000000e+00 0. 9.
        6     2     1     2   103     0  4.2303436518e+01 -6.4381072957e+00  4.2360545275e+01  1.8346753036e+02  1.7330576717e+02  8.266204e-14 9.
       -6     2     1     2     0   102 -4.2303436518e+01  6.4381072957e+00  1.0464372903e+02  2.0690090852e+02  1.7328198393e+02  1.257764e-13 9.
       24     2     3     0     0     0 -6.9627291352e+00  5.5325719201e+01  1.6726144893e+01  1.0026844488e+02  8.1636893093e+01  1.048244e-14 9.
        5     1     3     0   103     0  4.9266165653e+01 -6.1763826497e+01  2.5634400382e+01  8.3199085480e+01  4.8000000000e+00 0. 9.
      -24     2     4     0     0     0  3.8371161114e+00 -3.4325354729e+01  1.1242779550e+02  1.4465749823e+02  8.4218935860e+01  1.162546e-13 9.
       -5     1     4     0     0   102 -4.6140552629e+01  4.0763462025e+01 -7.7840664658e+00  6.2243410285e+01  4.8000000000e+00 0. 9.
       -3     1     5     0     0   104  1.5610088392e+01 -6.3790670193e+00  2.8867018923e+01  3.3435342635e+01  5.0000000000e-01 0. 9.
        4     1     5     0   104     0 -2.2572817527e+01  6.1704786221e+01 -1.2140874030e+01  6.6833102246e+01  1.5000000000e+00 0. 9.
        1     1     7     0   105     0 -2.8532386675e+00 -3.4563468448e+01  2.7784347298e+00  3.4793719571e+01  3.3000000000e-01 0. 9.
       -4     1     7     0     0   105  6.6903547789e+00  2.3811371866e-01  1.0964936077e+02  1.0986377866e+02  1.5000000000e+00 0. 9.
#pdf   21   21  4.133636e-02  1.872032e-02  1.784872e+02  2.338717e+00  4.892417e+00
</event>
<event>
    12  9999  1.000000e+00  2.084180e+02  7.891454e-03  1.052088e-01
       21    -1     0     0   101   102  0.0000000000e+00  0.0000000000e+00  1.7034826770e+02  1.7034826770e+02  0.0000000000e+00 0. 9.
       21    -1     0     0   102   103  0.0000000000e+00  0.0000000000e+00 -4.1528354688e+02  4.1528354688e+02  0.0000000000e+00 0. 9.
        6     2     1     2   101     0 -5.3638396473e+00 -1.2001655412e+02  5.9470170691e+01  2.1668043526e+02  1.7023796810e+02  5.877227e-14 9.
       -6     2     1     2     0   103  5.3638396473e+00  1.2001655412e+02 -3.0440544988e+02  3.6895137933e+02  1.7038103871e+02  2.930745e-15 9.
       24     2     3     0     0     0  4.8599018708e+01 -1.0349705818e+02  4.1757552303e+01  1.5733685365e+02  9.9687946468e+01  1.197931e-13 9.
        5     1     3     0   101     0 -5.3962858356e+01 -1.6519495949e+01  1.7712618388e+01  5.9343581611e+01  4.8000000000e+00 0. 9.
      -24     2     4     0     0     0  5.4193326460e+01  4.6499340801e+01 -8.6585238537e+01  1.3388163669e+02  7.2994409249e+01  1.342174e-13 9.
       -5     1     4     0     0   103 -4.8829486813e+01  7.3517213323e+01 -2.1782021134e+02  2.3506974264e+02  4.8000000000e+00 0. 9.
      -11     1     5     0     0     0  3.5143347300e+01 -7.6331769609e+01  7.4795060462e+01  1.1249842213e+02  5.1100000000e-04 0. 9.
       12     1     5     0     0     0  1.3455671408e+01 -2.7165288567e+01 -3.3037508159e+01  4.4838431522e+01  0.0000000000e+00 0. 9.
       13     1     7     0     0     0  2.5416491666e+01  5.8831772133e+01 -3.3658854456e+01  7.2388570287e+01  1.0566000000e-01  1.397030e+05 9.
      -14     1     7     0     0     0  2.8776834793e+01 -1.2332431332e+01 -5.2926384081e+01  6.1493066399e+01  0.0000000000e+00 0. 9.
#pdf   21   21  2.620743e-02  6.388978e-02  2.083596e+02  3.618065e+00  1.436941e+00
</event>
<event>
    12  9999  1.000000e+00  1.805962e+02  7.878537e-03  1.070613e-01
       21    -1     0     0   101   102  0.0000000000e+00  0.0000000000e+00  3.1385460538e+02  3.1385460538e+02  0.0000000000e+00 0. 9.
       21    -1     0     0   103   101  0.0000000000e+00  0.0000000000e+00 -1.3328123352e+02  1.3328123352e+02  0.0000000000e+00 0. 9.
        6     2     1     2   103     0  9.1449036150e+00 -6.1096465097e+01 -1.5198399166e+01  1.7980371961e+02  1.6817246784e+02  2.903327e-14 9.
       -6     2     1     2     0   102 -9.1449036150e+00  6.1096465097e+01  1.9577177102e+02  2.6733211929e+02  1.7124096579e+02  9.635135e-14 9.
       24     2     3     0     0     0  6.6390351627e+01 -3.4098335325e+01 -3.5217628219e+01  1.1324735356e+02  7.7551959938e+01  2.673322e-13 9.
        5     1     3     0   103     0 -5.7245448012e+01 -2.6998129772e+01  2.0019229053e+01  6.6556366046e+01  4.8000000000e+00 0. 9.
      -24     2     4     0     0     0 -4.7391076581e+01  4.0279073311e+01  4.5800814631e+01  1.1109364353e+02  7.9848388373e+01  1.064875e-13 9.
       -5     1     4     0     0   102  3.8246172966e+01  2.0817391786e+01  1.4997095639e+02  1.5623847576e+02  4.8000000000e+00 0. 9.
       -3     1     5     0     0   104  3.4671623032e+01 -2.0830990584e+01  2.2321973223e+01  4.6201429642e+01  5.0000000000e-01 0. 9.
        4     1     5     0   104     0  3.1718728596e+01 -1.3267344742e+01 -5.7539601442e+01  6.7045923920e+01  1.5000000000e+00 0. 9.
        3     1     7     0   105     0 -5.8780006809e+01  5.5446584123e+01  4.3929255597e+01  9.1975227038e+01  5.0000000000e-01 0. 9.
       -4     1     7     0     0   105  1.1388930227e+01 -1.5167510812e+01  1.8715590340e+00  1.9118416493e+01  1.5000000000e+00 0. 9.
#pdf   21   21  4.828532e-02  2.050481e-02  1.791602e+02  1.986919e+00  4.523320e+00
</event>
<event>
    12  9999  1.000000e+00  1.888180e+02  7.882546e-03  1.064786e-01
       21    -1     0     0   101   102  0.0000000000e+00  0.0000000000e+00  6.0416279610e+02  6.0416279610e+02  0.0000000000e+00 0. 9.
       21    -1     0     0   102   103  0.0000000000e+00  0.0000000000e+00 -6.0474158494e+01  6.0474158494e+01  0.0000000000e+00 0. 9.
        6     2     1     2   101     0  3.0377447154e+01 -7.7902182489e+01  2.2267490651e+02  2.9308055553e+02  1.7123246978e+02  1.999662e-13 9.
       -6     2     1     2     0   103 -3.0377447154e+01  7.7902182489e+01  3.2101373110e+02  3.7155639907e+02  1.6737025662e+02  1.713779e-13 9.
       24     2     3     0     0     0 -2.5832975879e+01 -9.5651107181e+01  1.8037995432e+02  2.2037196617e+02  7.8806082291e+01  1.773900e-13 9.
        5     1     3     0   101     0  5.6210423034e+01  1.7748924692e+01  4.2294952186e+01  7.2708589354e+01  4.8000000000e+00 0. 9.
      -24     2     4     0     0     0  1.1973131076e+01  8.6965503712e+01  1.3114746526e+02  1.7675405264e+02  7.9598886793e+01  1.982916e-13 9.
       -5     1     4     0     0   103 -4.2350578230e+01 -9.0633212234e+00  1.8986626584e+02  1.9480234642e+02  4.8000000000e+00 0. 9.
       -3     1     5     0     0   104  8.8726354364e+00  1.0664819382e+01  2.9034976787e+01  3.2182944381e+01  5.0000000000e-01 0. 9.
        4     1     5     0   104     0 -3.4705611316e+01 -1.0631592656e+02  1.5134497754e+02  1.8818902179e+02  1.5000000000e+00 0. 9.
        3     1     7     0   105     0  2.1001895435e+01  6.4757572754e+01  1.3614647406e+02  1.5221936552e+02  5.0000000000e-01 0. 9.
       -4     1     7     0     0   105 -9.0287643591e+00  2.2207930958e+01 -4.9990087996e+00  2.4534687124e+01  1.5000000000e+00 0. 9.
#pdf   21   21  9.294812e-02  9.303717e-03  1.870945e+02  9.087140e-01  8.569736e+00
</event>
<event>
    12  9999  1.000000e+00  1.742600e+02  7.875323e-03  1.075334e-01
       21    -1     0     0   101   102  0.0000000000e+00  0.0000000000e+00  2.7034748712e+02  2.7034748712e+02  0.0000000000e+00 0. 9.
       21    -1     0     0   102   103  0.0000000000e+00  0.0000000000e+00 -1.4724279947e+02  1.4724279947e+02  0.0000000000e+00 0. 9.
        6     2     1     2   101     0  2.1348463439e+00 -3.5097440184e+01  1.6318032397e+02  2.3859676555e+02  1.7048228801e+02  3.306018e-16 9.
       -6     2     1     2     0   103 -2.1348463439e+00  3.5097440184e+01 -4.0075636319e+01  1.7899352103e+02  1.7086906118e+02  1.351115e-13 9.
       24     2     3     0     0     0  6.0790426368e+01  2.8339787625e-01  6.3393398676e+01  1.1746563319e+02  7.7999331610e+01  3.106224e-14 9.
        5     1     3     0   101     0 -5.8655580024e+01 -3.5380838061e+01  9.9786925292e+01  1.2113113237e+02  4.8000000000e+00 0. 9.
      -24     2     4     0     0     0 -1.5825541071e+00 -3.1331299257e+01  1.7806627261e+01  9.0752493793e+01  8.3275352684e+01  2.710132e-14 9.
       -5     1     4     0     0   103 -5.5229223672e-01  6.6428739441e+01 -5.7882263580e+01  8.8241027236e+01  4.8000000000e+00 0. 9.
       -1     1     5     0     0   104 -1.4387747435e+00  1.8252460362e+01  4.7304085630e+01  5.0724824291e+01  3.3000000000e-01 0. 9.
        2     1     5     0   104     0  6.2229201111e+01 -1.7969062486e+01  1.6089313046e+01  6.6740808894e+01  3.3000000000e-01 0. 9.
        3     1     7     0   105     0 -1.7956260067e+01  7.8684700953e+00 -2.4092961375e+01  3.1065429098e+01  5.0000000000e-01 0. 9.
       -4     1     7     0     0   105  1.6373705960e+01 -3.9199769352e+01  4.1899588636e+01  5.9687064695e+01  1.5000000000e+00 0. 9.
#pdf   21   21  4.159192e-02  2.265274e-02  1.740707e+02  2.326838e+00  4.146888e+00
</event>
<event>
    12  9999  1.000000e+00  3.494446e+02  7.938398e-03  9.903456e-02
       21    -1     0     0   101   102  0.0000000000e+00  0.0000000000e+00  5.0230675450e+02  5.0230675450e+02  0.0000000000e+00 0. 9.
       21    -1     0     0   103   101  0.0000000000e+00  0.0000000000e+00 -2.6849019618e+02  2.6849019618e+02  0.0000000000e+00 0. 9.
        6     2     1     2   103     0  2.9761053773e+02  6.5972966442e+01 -1.5068694613e+00  3.4976928337e+02  1.7149873604e+02  1.430845e-14 9.
       -6     2     1     2     0   102 -2.9761053773e+02 -6.5972966442e+01  2.3532342778e+02  4.2102766731e+02  1.7018436036e+02  1.532076e-13 9.
       24     2     3     0     0     0  1.5717890900e+02  5.3175243172e+01  6.2568127976e+01  1.9480648343e+02  8.0634852434e+01  5.835179e-15 9.
        5     1     3     0   103     0  1.4043162873e+02  1.2797723270e+01 -6.4074997438e+01  1.5496279994e+02  4.8000000000e+00 0. 9.
      -24     2     4     0     0     0 -9.1747493237e+01  2.5222620648e+01  7.1481324496e+01  1.4252541777e+02  7.8422776355e+01  8.145559e-15 9.
       -5     1     4     0     0   102 -2.0586304449e+02 -9.1195587090e+01  1.6384210328e+02  2.7850224954e+02  4.8000000000e+00 0. 9.
      -15     1     5     0     0     0  8.8674964053e+01  6.9273293932e+01  2.6007926716e+01  1.1550587796e+02  1.7768200000e+00  5.797360e-02 9.
       16     1     5     0     0     0  6.8503944951e+01 -1.6098050760e+01  3.6560201261e+01  7.9300605473e+01  0.0000000000e+00 0. 9.
        1     1     7     0   104     0 -8.7100545823e+01  1.6679237469e+01  2.1028575279e+01  9.1142810597e+01  3.3000000000e-01 0. 9.
       -2     1     7     0     0   104 -4.6469474138e+00  8.5433831789e+00  5.0452749217e+01  5.1382607173e+01  3.3000000000e-01 0. 9.
#pdf   21   21  7.727796e-02  4.130618e-02  3.491234e+02  1.090573e+00  2.256751e+00
</event>
<event>
    12  9999  1.000000e+00  1.830627e+02  7.879758e-03  1.068831e-01
       -2    -1     0     0     0   101  0.0000000000e+00  0.0000000000e+00  4.0654931708e+01  4.0654931708e+01  0.0000000000e+00 0. 9.
        2    -1     0     0   102     0  0.0000000000e+00  0.0000000000e+00 -8.9890550771e+02  8.9890550771e+02  0.0000000000e+00 0. 9.
       -6     2     1     2     0   101  5.8959918092e+01  1.4758809436e+01 -5.6031239386e+02  5.8887765402e+02  1.7068338610e+02  4.210242e-14 9.
        6     2     1     2   102     0 -5.8959918092e+01 -1.4758809436e+01 -2.9793818214e+02  3.5068278540e+02  1.7469161743e+02  2.534379e-15 9.
      -24     2     3     0     0     0  4.1872135353e+01  1.6313042583e+01 -5.6240170114e+02  5.7093850230e+02  8.7496907867e+01  7.350933e-14 9.
       -5     1     3     0     0   101  1.7087782739e+01 -1.5542331474e+00  2.0893072762e+00  1.7939151722e+01  4.8000000000e+00 0. 9.
       24     2     4     0     0     0 -6.2840843580e+01  5.9178532175e+00 -7.5318310902e+01  1.2701957199e+02  8.0480625637e+01  2.352424e-13 9.
        5     1     4     0   102     0  3.8809254880e+00 -2.0676662653e+01 -2.2261987124e+02  2.2366321341e+02  4.8000000000e+00 0. 9.
        3     1     5     0   103     0 -2.0820540874e+01 -1.6476358484e+01 -1.9314569453e+02  1.9496275190e+02  5.0000000000e-01 0. 9.
       -4     1     5     0     0   103  6.2692676227e+01  3.2789401067e+01 -3.6925600660e+02  3.7597575039e+02  1.5000000000e+00 0. 9.
       -1     1     7     0     0   104 -7.4950069824e+01 -1.0368425315e+01 -3.8309308490e+01  8.4809959481e+01  3.3000000000e-01 0. 9.
        2     1     7     0   104     0  1.2109226244e+01  1.6286278532e+01 -3.7009002413e+01  4.2209612510e+01  3.3000000000e-01 0. 9.
#pdf   -2    2  6.254605e-03  1.382932e-01  1.811820e+02  6.734992e-01  5.351766e-01
</event>
<event>
    12  9999  1.000000e+00  1.759629e+02  7.876198e-03  1.074044e-01
       -1    -1     0     0     0   101  0.0000000000e+00  0.0000000000e+00  3.0991806930e+01  3.0991806930e+01  0.0000000000e+00 0. 9.
        1    -1     0     0   102     0  0.0000000000e+00  0.0000000000e+00 -1.1652728455e+03  1.1652728455e+03  0.0000000000e+00 0. 9.
       -6     2     1     2     0   101 -3.7986541089e+01  1.7759792609e+01 -3.4077728369e+02  3.8344788281e+02  1.7071828906e+02  1.838485e-13 9.
        6     2     1     2   102     0  3.7986541089e+01 -1.7759792609e+01 -7.9350375488e+02  8.1281676961e+02  1.7106871256e+02  2.543135e-14 9.
      -24     2     3     0     0     0 -5.4825356384e+01  4.1253785453e+01 -1.1775670745e+02  1.5851071197e+02  8.0940157797e+01  4.151144e-14 9.
       -5     1     3     0     0   101  1.6838815296e+01 -2.3493992844e+01 -2.2302057624e+02  2.2493717084e+02  4.8000000000e+00 0. 9.
       24     2     4     0     0     0 -1.5402206888e+01 -3.5166406865e+01 -6.8106597143e+02  6.8704457961e+02  8.1887073374e+01  9.049067e-14 9.
        5     1     4     0   102     0  5.3388747976e+01  1.7406614256e+01 -1.1243778345e+02  1.2577219000e+02  4.8000000000e+00 0. 9.
       15     1     5     0     0     0  2.5911593138e+00  3.4232406807e+01 -9.3310294678e+00  3.5620176623e+01  1.7768200000e+00  1.231090e-02 9.
      -16     1     5     0     0     0 -5.7416515698e+01  7.0213786459e+00 -1.0842567798e+02  1.2289053535e+02  0.0000000000e+00 0. 9.
       -3     1     7     0     0   103 -1.3312346001e+01  1.5325562537e+01 -4.5243246249e+02  4.5288792713e+02  5.0000000000e-01 0. 9.
        4     1     7     0   103     0 -2.0898608862e+00 -5.0491969401e+01 -2.2863350894e+02  2.3415665249e+02  1.5000000000e+00 0. 9.
#pdf   -1    1  4.767970e-03  1.792727e-01  1.757928e+02  7.902673e-01  2.466739e-01
</event>
<event>
    12  9999  1.000000e+00  1.750617e+02  7.875736e-03  1.074725e-01
       21    -1     0     0   101   102  0.0000000000e+00  0.0000000000e+00  6.1212239740e+01  6.1212239740e+01  0.0000000000e+00 0. 9.
       21    -1     0     0   103   101  0.0000000000e+00  0.0000000000e+00 -7.1911946355e+02  7.1911946355e+02  0.0000000000e+00 0. 9.
        6     2     1     2   103     0 -4.5277071621e+01  1.3361574164e+01 -5.3877282256e+02  5.6532811183e+02  1.6459396959e+02  2.070660e-14 9.
       -6     2     1     2     0   102  4.5277071621e+01 -1.3361574164e+01 -1.1913440125e+02  2.1500359145e+02  1.7264122885e+02  1.210137e-13 9.
       24     2     3     0     0     0 -9.3066289059e+01  5.3680245623e+00 -4.1453680734e+02  4.3189148412e+02  7.7455403743e+01  9.201722e-14 9.
        5     1     3     0   103     0  4.7789217438e+01  7.9935496012e+00 -1.2423601522e+02  1.3343662771e+02  4.8000000000e+00 0. 9.
      -24     2     4     0     0     0  4.0624077840e+00 -4.2208532522e+01 -4.8594028586e+00  9.0053158164e+01  7.9296242814e+01  5.912783e-14 9.
       -5     1     4     0     0   102  4.1214663837e+01  2.8846958359e+01 -1.1427499839e+02  1.2495043329e+02  4.8000000000e+00 0. 9.
       -1     1     5     0     0   104 -9.5699950456e+01  2.1929576066e+01 -3.9000831594e+02  4.0217655604e+02  3.3000000000e-01 0. 9.
        2     1     5     0   104     0  2.6336613968e+00 -1.6561551504e+01 -2.4528491396e+01  2.9714928078e+01  3.3000000000e-01 0. 9.
        3     1     7     0   105     0  1.1097984494e+01 -5.1848609074e+01 -3.0897832678e+01  6.1370755144e+01  5.0000000000e-01 0. 9.
       -4     1     7     0     0   105 -7.0355767104e+00  9.6400765515e+00  2.6038429819e+01  2.8682403020e+01  1.5000000000e+00 0. 9.
#pdf   21   21  9.417268e-03  1.106338e-01  1.712300e+02  8.477483e+00  7.222773e-01
</event>
<event>
    12  9999  1.000000e+00  3.906255e+02  7.948590e-03  9.779853e-02
       21    -1     0     0   101   102  0.0000000000e+00  0.0000000000e+00  1.9184088823e+03  1.9184088823e+03  0.0000000000e+00 0. 9.
       21    -1     0     0   102   103  0.0000000000e+00  0.0000000000e+00 -1.2865864440e+02  1.2865864440e+02  0.0000000000e+00 0. 9.
        6     2     1     2   101     0 -2.7671987970e+02  2.1752275234e+02  1.5273663343e+03  1.5765378319e+03  1.6950981361e+02  8.837978e-14 9.
       -6     2     1     2     0   103  2.7671987970e+02 -2.1752275234e+02  2.6238390367e+02  4.7052969480e+02  1.6930103712e+02  5.471537e-13 9.
       24     2     3     0     0     0 -1.7688254267e+02  7.4098268663e+01  9.8713523324e+02  1.0087255752e+03  7.9456466481e+01  7.472786e-14 9.
        5     1     3     0   101     0 -9.9837337029e+01  1.4342448368e+02  5.4023110101e+02  5.6781225672e+02  4.8000000000e+00 0. 9.
      -24     2     4     0     0     0  2.1047303067e+02 -1.3633372530e+02  1.0914271780e+02  2.8482507944e+02  7.9545029600e+01  1.638912e-14 9.
       -5     1     4     0     0   103  6.6246849032e+01 -8.1189027040e+01  1.5324118587e+02  1.8570461536e+02  4.8000000000e+00 0. 9.
      -15     1     5     0     0     0 -1.8150808407e+01  4.1368009015e+01  1.9357740942e+02  1.9878665584e+02  1.7768200000e+00  2.740726e-01 9.
       16     1     5     0     0     0 -1.5873173426e+02  3.2730259649e+01  7.9355782382e+02  8.0993891937e+02  0.0000000000e+00 0. 9.
        3     1     7     0   104     0  3.2919790522e+01 -5.9546224498e+01  4.2457240667e+01  8.0201825073e+01  5.0000000000e-01 0. 9.
       -4     1     7     0     0   104  1.7755324015e+02 -7.6787500803e+01  6.6685477135e+01  2.0462325436e+02  1.5000000000e+00 0. 9.
#pdf   21   21  2.951398e-01  1.979364e-02  3.905802e+02  9.076877e-02  4.587758e+00
</event>
<event>
    12  9999  1.000000e+00  2.443657e+02  7.905848e-03  1.032262e-01
       21    -1     0     0   101   102  0.0000000000e+00  0.0000000000e+00  2.9749620642e+02  2.9749620642e+02  0.0000000000e+00 0. 9.
       21    -1     0     0   103   101  0.0000000000e+00  0.0000000000e+00 -2.4504264925e+02  2.4504264925e+02  0.0000000000e+00 0. 9.
        6     2     1     2   103     0  5.6657474637e+01 -1.6529287686e+02 -8.9149721968e+01  2.5999522610e+02  1.7064008934e+02  3.120459e-14 9.
       -6     2     1     2     0   102 -5.6657474637e+01  1.6529287686e+02  1.4160327914e+02  2.8254362957e+02  1.7101932456e+02  6.159201e-14 9.
       24     2     3     0     0     0  1.6248630343e+01 -1.6984163327e+02 -3.5022913040e+01  1.9212537029e+02  8.1088563268e+01  6.324371e-14 9.
        5     1     3     0   103     0  4.0408844293e+01  4.5487564049e+00 -5.4126808928e+01  6.7869855803e+01  4.8000000000e+00 0. 9.
      -24     2     4     0     0     0 -5.3245865532e+01  8.1506689506e+01  3.8542682345e+01  1.4959141680e+02  1.0683440919e+02  1.710496e-13 9.
       -5     1     4     0     0   102 -3.4116091044e+00  8.3786187358e+01  1.0306059679e+02  1.3295221277e+02  4.8000000000e+00 0. 9.
       -1     1     5     0     0   104 -2.2689183018e+01 -1.5842077725e+01 -1.6456528051e+01  3.2197774273e+01  3.3000000000e-01 0. 9.
        2     1     5     0   104     0  3.8937813361e+01 -1.5399955554e+02 -1.8566384990e+01  1.5992759602e+02  3.3000000000e-01 0. 9.
       15     1     7     0     0     0  5.6483870546e-02  4.4070739188e+01  6.5608983631e+01  7.9056492873e+01  1.7768200000e+00  1.966766e-01 9.
      -16     1     7     0     0     0 -5.3302349403e+01  3.7435950319e+01 -2.7066301286e+01  7.0534923927e+01  0.0000000000e+00 0. 9.
#pdf   21   21  4.576865e-02  3.769887e-02  2.442332e+02  2.065071e+00  2.527993e+00
</event>
<event>
    12  9999  1.000000e+00  2.041918e+02  7.889604e-03  1.054697e-01
       21    -1     0     0   101   102  0.0000000000e+00  0.0000000000e+00  8.3665342426e+02  8.3665342426e+02  0.0000000000e+00 0. 9.
       21    -1     0     0   102   103  0.0000000000e+00  0.0000000000e+00 -8.1868188093e+01  8.1868188093e+01  0.0000000000e+00 0. 9.
        6     2     1     2   101     0 -1.1261601625e+02  1.4544038523e+01  6.6587512360e+02  6.9679707096e+02  1.7100462479e+02  7.763987e-14 9.
       -6     2     1     2     0   103  1.1261601625e+02 -1.4544038523e+01  8.8910112559e+01  2.2172454138e+02  1.6841279038e+02  6.513380e-14 9.
       24     2     3     0     0     0 -6.5296478370e+01  7.4257736563e+01  3.8629206282e+02  4.0697886540e+02  8.1439533144e+01  2.117789e-14 9.
        5     1     3     0   101     0 -4.7319537881e+01 -5.9713698039e+01  2.7958306079e+02  2.8981820557e+02  4.8000000000e+00 0. 9.
      -24     2     4     0     0     0  9.1819617804e+01 -4.5576657883e+00 -6.4845366212e+00  1.2346266210e+02  8.2154520178e+01  3.966317e-14 9.
       -5     1     4     0     0   103  2.0796398448e+01 -9.9863727349e+00  9.5394649180e+01  9.8261879287e+01  4.8000000000e+00 0. 9.
       -1     1     5     0     0   104 -1.0876611468e+01  1.0899514399e+01  4.3398003333e+00  1.6001339259e+01  3.3000000000e-01 0. 9.
        2     1     5     0   104     0 -5.4419866902e+01  6.3358222164e+01  3.8195226248e+02  3.9097752614e+02  3.3000000000e-01 0. 9.
        3     1     7     0   105     0  9.6050476414e+01 -1.2139759739e+01  1.7074317927e+01  9.8309969579e+01  5.0000000000e-01 0. 9.
       -4     1     7     0     0   105 -4.2308586108e+00  7.5820939504e+00 -2.3558854548e+01  2.5152692517e+01  1.5000000000e+00 0. 9.
#pdf   21   21  1.287159e-01  1.259511e-02  2.031176e+02  5.669304e-01  6.777591e+00
</event>
<event>
    12  9999  1.000000e+00  1.915435e+02  7.883837e-03  1.062924e-01
       21    -1     0     0   101   102  0.0000000000e+00  0.0000000000e+00  3.3901850733e+02  3.3901850733e+02  0.0000000000e+00 0. 9.
       21    -1     0     0   103   101  0.0000000000e+00  0.0000000000e+00 -1.0864018860e+02  1.0864018860e+02  0.0000000000e+00 0. 9.
        6     2     1     2   103     0  2.9351818242e+00 -8.0182314326e+01  1.2718214743e+02  2.2775956187e+02  1.7105934811e+02  1.107956e-13 9.
       -6     2     1     2     0   102 -2.9351818242e+00  8.0182314326e+01  1.0319617130e+02  2.1989913405e+02  1.7682861919e+02  6.862033e-14 9.
       24     2     3     0     0     0  1.6640446353e+01 -2.3218615498e+01  1.4315577183e+02  1.6684245478e+02  8.0788743945e+01  6.175107e-14 9.
        5     1     3     0   103     0 -1.3705264529e+01 -5.6963698827e+01 -1.5973624398e+01  6.0917107091e+01  4.8000000000e+00 0. 9.
      -24     2     4     0     0     0 -2.8716464893e+01  1.1297331178e+02  1.0644903740e+02  1.7778565393e+02  8.1784696925e+01  2.015498e-13 9.
       -5     1     4     0     0   102  2.5781283069e+01 -3.2790997450e+01 -3.2528660979e+00  4.2113480125e+01  4.8000000000e+00 0. 9.
      -15     1     5     0     0     0  1.8862952402e+01 -1.8673985261e+01  3.1987016888e+00  2.6793982172e+01  1.7768200000e+00  2.397805e-01 9.
       16     1     5     0     0     0 -2.2225060487e+00 -4.5446302371e+00  1.3995707014e+02  1.4004847261e+02  0.0000000000e+00 0. 9.
        3     1     7     0   104     0  2.2495448237e+00 -1.2723432422e+01  9.8598143969e+00  1.6260754117e+01  5.0000000000e-01 0. 9.
       -4     1     7     0     0   104 -3.0966009717e+01  1.2569674420e+02  9.6589222998e+01  1.6152489981e+02  1.5000000000e+00 0. 9.
#pdf   21   21  5.215669e-02  1.671388e-02  1.889421e+02  1.821699e+00  5.380647e+00
</event>
<event>
    12  9999  1.000000e+00  1.751988e+02  7.875807e-03  1.074621e-01
       21    -1     0     0   101   102  0.0000000000e+00  0.0000000000e+00  7.7052889862e+01  7.7052889862e+01  0.0000000000e+00 0. 9.
       21    -1     0     0   102   103  0.0000000000e+00  0.0000000000e+00 -5.7396583453e+02  5.7396583453e+02  0.0000000000e+00 0. 9.
        6     2     1     2   101     0 -2.7600938688e+01 -2.4325649734e+01 -6.8114803632e+01  1.8769718504e+02  1.7098847256e+02  6.426331e-14 9.
       -6     2     1     2     0   103  2.7600938688e+01  2.4325649734e+01 -4.2879814104e+02  4.6332153935e+02  1.7159677741e+02  5.367183e-14 9.
       24     2     3     0     0     0 -1.9179040439e+01  4.5500646876e+01 -6.8076817291e+00  9.4272117398e+01  8.0017142725e+01  1.032571e-13 9.
        5     1     3     0   101     0 -8.4218982490e+00 -6.9826296610e+01 -6.1307121903e+01  9.3425067644e+01  4.8000000000e+00 0. 9.
      -24     2     4     0     0     0 -1.0366593383e+01  7.3106376173e+01 -2.2016543241e+02  2.4567103999e+02  8.0183750005e+01  1.382195e-14 9.
       -5     1     4     0     0   103  3.7967532071e+01 -4.8780726439e+01 -2.0863270862e+02  2.1765049936e+02  4.8000000000e+00 0. 9.
       -1     1     5     0     0   104 -2.5605689066e+01  1.7150812635e+01  3.2886217031e+01  4.5071208739e+01  3.3000000000e-01 0. 9.
        2     1     5     0   104     0  6.4266486273e+00  2.8349834241e+01 -3.9693898760e+01  4.9200908659e+01  3.3000000000e-01 0. 9.
       11     1     7     0     0     0  2.1998056055e+01 -3.7737052413e+00 -2.5509165003e+01  3.3895026491e+01  5.1100000000e-04 0. 9.
      -12     1     7     0     0     0 -3.2364649438e+01  7.6880081415e+01 -1.9465626741e+02  2.1177601350e+02  0.0000000000e+00 0. 9.
#pdf   21   21  1.185429e-02  8.830244e-02  1.749017e+02  7.105014e+00  9.782794e-01
</event>
<event>
    12  9999  1.000000e+00  1.895049e+02  7.882873e-03  1.064314e-01
       21    -1     0     0   101   102  0.0000000000e+00  0.0000000000e+00  1.5959608093e+03  1.5959608093e+03  0.0000000000e+00 0. 9.
       21    -1     0     0   103   101  0.0000000000e+00  0.0000000000e+00 -4.1990460776e+01  4.1990460776e+01  0.0000000000e+00 0. 9.
        6     2     1     2   103     0  6.9890790147e+01  3.7272564670e+01  2.1977897628e+02  2.9041538168e+02  1.7252341545e+02  2.782115e-14 9.
       -6     2     1     2     0   102 -6.9890790147e+01 -3.7272564670e+01  1.3341913722e+03  1.3475358884e+03  1.7179169395e+02  2.458105e-14 9.
       24     2     3     0     0     0  6.5298280366e+00  2.7303383006e+01  2.0654763811e+02  2.2474876602e+02  8.4035514161e+01  1.149703e-13 9.
        5     1     3     0   103     0  6.3360962110e+01  9.9691816645e+00  1.3231338164e+01  6.5666615660e+01  4.8000000000e+00 0. 9.
      -24     2     4     0     0     0 -1.0690300641e+02 -3.7519609668e+01  1.2076363798e+03  1.2155920697e+03  8.0265061921e+01  1.205298e-13 9.
       -5     1     4     0     0   102  3.7012216259e+01  2.4704499724e-01  1.2655499244e+02  1.3194381871e+02  4.8000000000e+00 0. 9.
       -3     1     5     0     0   104  3.2795677065e+01  3.7763265935e+01  7.4727542408e+01  8.9922612744e+01  5.0000000000e-01 0. 9.
        4     1     5     0   104     0 -2.6265849028e+01 -1.0459882930e+01  1.3182009571e+02  1.3482615328e+02  1.5000000000e+00 0. 9.
        1     1     7     0   105     0 -4.5304531839e+01 -5.8301502627e+01  6.4437145104e+02  6.4858788274e+02  3.3000000000e-01 0. 9.
       -2     1     7     0     0   105 -6.1598474566e+01  2.0781892959e+01  5.6326492874e+02  5.6700418692e+02  3.3000000000e-01 0. 9.
#pdf   21   21  2.455324e-01  6.460071e-03  1.891728e+02  1.741265e-01  1.121565e+01
</event>
<event>
    12  9999  1.000000e+00  1.831645e+02  7.879808e-03  1.068758e-01
       21    -1     0     0   101   102  0.0000000000e+00  0.0000000000e+00  3.3048756726e+02  3.3048756726e+02  0.0000000000e+00 0. 9.
       21    -1     0     0   102   103  0.0000000000e+00  0.0000000000e+00 -1.0160000130e+02  1.0160000130e+02  0.0000000000e+00 0. 9.
        6     2     1     2   101     0 -6.3123185121e+01  3.3928310607e+01  1.1748329359e+02  2.1495651566e+02  1.6513119811e+02  3.429410e-13 9.
       -6     2     1     2     0   103  6.3123185121e+01 -3.3928310607e+01  1.1140427237e+02  2.1713105290e+02  1.7204451596e+02  1.096853e-14 9.
       24     2     3     0     0     0  1.5099477826e+01  3.8962524641e+01  6.1985530801e+01  1.1879430903e+02  9.2324478181e+01  1.482462e-13 9.
        5     1     3     0   101     0 -7.8222662947e+01 -5.0342140338e+00  5.5497762794e+01  9.6162206633e+01  4.8000000000e+00 0. 9.
      -24     2     4     0     0     0  3.8722094927e+01 -1.4739577415e+01  1.4547655366e+02  1.7078905212e+02  7.9302061003e+01  4.161536e-13 9.
       -5     1     4     0     0   103  2.4401090195e+01 -1.9188733192e+01 -3.4072281293e+01  4.6342000785e+01  4.8000000000e+00 0. 9.
       -3     1     5     0     0   104 -2.4222925252e+01 -1.7610753289e+01  3.1412329714e+01  4.3403608113e+01  5.0000000000e-01 0. 9.
        4     1     5     0   104     0  3.9322403077e+01  5.6573277930e+01  3.0573201087e+01  7.5390700914e+01  1.5000000000e+00 0. 9.
       15     1     7     0     0     0  2.8913457409e+01  3.1145783889e+01  7.0812138662e+01  8.2604866350e+01  1.7768200000e+00  7.045027e-02 9.
      -16     1     7     0     0     0  9.8086375178e+00 -4.5885361304e+01  7.4664415000e+01  8.8184185766e+01  0.0000000000e+00 0. 9.
#pdf   21   21  5.084424e-02  1.563077e-02  1.800111e+02  1.878749e+00  5.690029e+00
</event>
<event>
    12  9999  1.000000e+00  1.977502e+02  7.886712e-03  1.058805e-01
       -1    -1     0     0     0   101  0.0000000000e+00  0.0000000000e+00  6.4933399885e+02  6.4933399885e+02  0.0000000000e+00 0. 9.
        1    -1     0     0   102     0  0.0000000000e+00  0.0000000000e+00 -7.7730720014e+01  7.7730720014e+01  0.0000000000e+00 0. 9.
       -6     2     1     2     0   101 -9.5083491798e+01 -2.8730023882e+01  1.1377829809e+02  2.2853465903e+02  1.7151182052e+02  2.848357e-14 9.
        6     2     1     2   102     0  9.5083491798e+01  2.8730023882e+01  4.5782498074e+02  4.9853005983e+02  1.7047645843e+02  8.774976e-14 9.
      -24     2     3     0     0     0 -4.9956699312e+00 -2.2092105325e+01  1.1350629316e+02  1.3807476959e+02  7.5285759438e+01  6.888969e-14 9.
       -5     1     3     0     0   101 -9.0087821866e+01 -6.6379185575e+00  2.7200493072e-01  9.0459889443e+01  4.8000000000e+00 0. 9.
       24     2     4     0     0     0  6.6165248838e+01  7.8986911967e+01  2.3931299354e+02  2.7240498796e+02  7.9479533049e+01  2.447222e-14 9.
        5     1     4     0   102     0  2.8918242960e+01 -5.0256888085e+01  2.1851198721e+02  2.2612507187e+02  4.8000000000e+00 0. 9.
       13     1     5     0     0     0  1.9314374507e+00 -5.4918093977e+00 -1.0909164693e+01  1.2365737318e+01  1.0566000000e-01  1.016061e+06 9.
      -14     1     5     0     0     0 -6.9271073818e+00 -1.6600295927e+01  1.2441545785e+02  1.2570903227e+02  0.0000000000e+00 0. 9.
       -1     1     7     0     0   103  4.2977239327e+01 -1.8585284780e+00  5.5134401940e+01  6.9931455051e+01  3.3000000000e-01 0. 9.
        2     1     7     0   103     0  2.3188009511e+01  8.0845440445e+01  1.8417859160e+02  2.0247353291e+02  3.3000000000e-01 0. 9.
#pdf   -1    1  9.989754e-02  1.195857e-02  1.973031e+02  9.463269e-02  6.433669e-01
</event>
<event>
    12  9999  1.000000e+00  3.717518e+02  7.944056e-03  9.834411e-02
       -1    -1     0     0     0   101  0.0000000000e+00  0.0000000000e+00  3.7835061652e+02  3.7835061652e+02  0.0000000000e+00 0. 9.
        1    -1     0     0   102     0  0.0000000000e+00  0.0000000000e+00 -3.6531435816e+02  3.6531435816e+02  0.0000000000e+00 0. 9.
       -6     2     1     2     0   101 -2.7464353260e+02 -1.8322666303e+02  2.3461004215e+00  3.7205982628e+02  1.7152821956e+02  7.958785e-14 9.
        6     2     1     2   102     0  2.7464353260e+02  1.8322666303e+02  1.0690157937e+01  3.7160514839e+02  1.7022052400e+02  1.919400e-13 9.
      -24     2     3     0     0     0 -1.5526863676e+02 -1.8041164278e+02 -1.4797869559e+01  2.5133184360e+02  7.9322180094e+01  1.629674e-13 9.
       -5     1     3     0     0   101 -1.1937489584e+02 -2.8150202521e+00  1.7143969980e+01  1.2072798268e+02  4.8000000000e+00 0. 9.
       24     2     4     0     0     0  2.6636126113e+02  2.0577567667e+02  1.5238747614e+01  3.4668961699e+02  8.1667132675e+01  2.186333e-13 9.
        5     1     4     0   102     0  8.2822714681e+00 -2.2549013643e+01 -4.5485896765e+00  2.4915531401e+01  4.8000000000e+00 0. 9.
        1     1     5     0   103     0 -1.9816686465e+01 -3.2957418850e+01 -3.2465169492e+01  5.0328805369e+01  3.3000000000e-01 0. 9.
       -2     1     5     0     0   103 -1.3545195029e+02 -1.4745422393e+02  1.7667299933e+01  2.0100303823e+02  3.3000000000e-01 0. 9.
      -13     1     7     0     0     0 -5.7715381163e+00  3.6390353374e+00 -2.4145769710e+00  7.2384097976e+00  1.0566000000e-01  4.652435e+05 9.
       14     1     7     0     0     0  2.7213279924e+02  2.0213664134e+02  1.7653324585e+01  3.3945120719e+02  0.0000000000e+00 0. 9.
#pdf   -1    1  5.820779e-02  5.620221e-02  3.714514e+02  1.645560e-01  4.170246e-01
</event>
<event>
    12  9999  1.000000e+00  2.365752e+02  7.902913e-03  1.036237e-01
       21    -1     0     0   101   102  0.0000000000e+00  0.0000000000e+00  2.0724186131e+02  2.0724186131e+02  0.0000000000e+00 0. 9.
       21    -1     0     0   102   103  0.0000000000e+00  0.0000000000e+00 -2.7502047014e+02  2.7502047014e+02  0.0000000000e+00 0. 9.
        6     2     1     2   101     0 -3.3205269055e+00 -1.6452356011e+02 -6.6295704619e+01  2.4585333883e+02  1.7020492365e+02  7.936965e-14 9.
       -6     2     1     2     0   103  3.3205269055e+00  1.6452356011e+02 -1.4829042129e+00  2.3640899263e+02  1.6972915206e+02  3.139434e-13 9.
       24     2     3     0     0     0  5.3042653442e+01 -6.6335140053e+01 -4.4963977329e+00  1.1677983937e+02  8.0021493363e+01  5.566405e-14 9.
        5     1     3     0   101     0 -5.6363180347e+01 -9.8188420058e+01 -6.1799306886e+01  1.2907349946e+02  4.8000000000e+00 0. 9.
      -24     2     4     0     0     0 -2.7620183111e+01  3.8215304552e+01 -3.3146096028e+01  1.0248102439e+02  8.4737315640e+01  1.322524e-13 9.
       -5     1     4     0     0   103  3.0940710016e+01  1.2630825556e+02  3.1663191815e+01  1.3392796823e+02  4.8000000000e+00 0. 9.
      -13     1     5     0     0     0  4.6221941754e+01 -6.4519402530e+01 -3.4073172722e+01  8.6372527262e+01  1.0566000000e-01  1.018174e+06 9.
       14     1     5     0     0     0  6.8207116876e+00 -1.8157375234e+00  2.9576774989e+01  3.0407312105e+01  0.0000000000e+00 0. 9.
        3     1     7     0   104     0 -4.7649531407e+00  3.3602931381e+01  2.3447615868e+01  4.1254120590e+01  5.0000000000e-01 0. 9.
       -4     1     7     0     0   104 -2.2855229970e+01  4.6123731707e+00 -5.6593711895e+01  6.1226903803e+01  1.5000000000e+00 0. 9.
#pdf   21   21  3.188336e-02  4.231084e-02  2.364043e+02  2.990311e+00  2.248363e+00
</event>
<event>
    12  9999  1.000000e+00  1.943564e+02  7.885151e-03  1.061037e-01
       -2    -1     0     0     0   101  0.0000000000e+00  0.0000000000e+00  3.2340473490e+01  3.2340473490e+01  0.0000000000e+00 0. 9.
        2    -1     0     0   102     0  0.0000000000e+00  0.0000000000e+00 -1.1703062619e+03  1.1703062619e+03  0.0000000000e+00 0. 9.
       -6     2     1     2     0   101 -6.5673283061e+01  6.5658278581e+01 -5.9561953887e+02  6.2653597395e+02  1.7076504887e+02  2.750517e-13 9.
        6     2     1     2   102     0  6.5673283061e+01 -6.5658278581e+01 -5.4234624952e+02  5.7611076143e+02  1.7070490738e+02  2.923900e-14 9.
      -24     2     3     0     0     0 -6.4060145823e+01  9.5929394810e+01 -5.6819054802e+02  5.8537370690e+02  8.0720052053e+01  7.288518e-14 9.
       -5     1     3     0     0   101 -1.6131372384e+00 -3.0271116228e+01 -2.7428990856e+01  4.1162267052e+01  4.8000000000e+00 0. 9.
       24     2     4     0     0     0  7.5066503831e+01 -1.0195436265e+02 -3.7471402018e+02  4.0427001355e+02  8.3629987902e+01  8.002402e-14 9.
        5     1     4     0   102     0 -9.3932207699e+00  3.6296084067e+01 -1.6763222935e+02  1.7184074788e+02  4.8000000000e+00 0. 9.
       11     1     5     0     0     0 -3.2003269756e+01  8.8576857514e+01 -2.8226437687e+02  2.9756217403e+02  5.1100000000e-04 0. 9.
      -12     1     5     0     0     0 -3.2056876066e+01  7.3525372951e+00 -2.8592617115e+02  2.8781153287e+02  0.0000000000e+00 0. 9.
       -1     1     7     0     0   103 -1.4607012770e+00 -4.7468687449e+01 -6.4225964174e+01  7.9877990151e+01  3.3000000000e-01 0. 9.
        4     1     7     0   103     0  7.6527205108e+01 -5.4485675199e+01 -3.1048805600e+02  3.2439202340e+02  1.5000000000e+00 0. 9.
#pdf   -2    2  4.975457e-03  1.800471e-01  1.943300e+02  7.630431e-01  4.776420e-01
</event>
<event>
    12  9999  1.000000e+00  2.092491e+02  7.891813e-03  1.051583e-01
       21    -1     0     0   101   102  0.0000000000e+00  0.0000000000e+00  1.7121290175e+02  1.7121290175e+02  0.0000000000e+00 0. 9.
       21    -1     0     0   103   101  0.0000000000e+00  0.0000000000e+00 -2.5638038311e+02  2.5638038311e+02  0.0000000000e+00 0. 9.
        6     2     1     2   103     0  1.1862764252e+02 -2.1574955839e+01 -5.3350664435e+01  2.1615414522e+02  1.7128433907e+02  1.633144e-13 9.
       -6     2     1     2     0   102 -1.1862764252e+02  2.1574955839e+01 -3.1816816918e+01  2.1143913964e+02  1.7075187742e+02  8.038831e-14 9.
       24     2     3     0     0     0 -2.1266824727e+00 -2.9084549869e+01 -5.5758337725e+00  8.5987039342e+01  8.0698495607e+01  1.531618e-13 9.
        5     1     3     0   103     0  1.2075432500e+02  7.5095940300e+00 -4.7774830663e+01  1.3016710588e+02  4.8000000000e+00 0. 9.
      -24     2     4     0     0     0 -7.3317627460e+01  3.6745545428e+01  4.2910702354e+01  1.2261129271e+02  8.0414495700e+01  1.171797e-13 9.
       -5     1     4     0     0   102 -4.5310015063e+01 -1.5170589589e+01 -7.4727519272e+01  8.8827846929e+01  4.8000000000e+00 0. 9.
      -13     1     5     0     0     0 -2.3398217020e+01  2.0189966062e+01 -9.0556663140e+00  3.2204464686e+01  1.0566000000e-01  1.272857e+06 9.
       14     1     5     0     0     0  2.1271534547e+01 -4.9274515930e+01  3.4798325414e+00  5.3782574656e+01  0.0000000000e+00 0. 9.
       11     1     7     0     0     0 -8.1853189884e+00  4.7842799270e+01  2.2170040471e+01  5.3361442856e+01  5.1100000000e-04 0. 9.
      -12     1     7     0     0     0 -6.5132308472e+01 -1.1097253842e+01  2.0740661883e+01  6.9249849856e+01  0.0000000000e+00 0. 9.
#pdf   21   21  2.634045e-02  3.944314e-02  2.090316e+02  3.600818e+00  2.433912e+00
</event>
<event>
    12  9999  1.000000e+00  2.286917e+02  7.899845e-03  1.040429e-01
       21    -1     0     0   101   102  0.0000000000e+00  0.0000000000e+00  1.2662175459e+02  1.2662175459e+02  0.0000000000e+00 0. 9.
       21    -1     0     0   103   101  0.0000000000e+00  0.0000000000e+00 -4.2172975237e+02  4.2172975237e+02  0.0000000000e+00 0. 9.
        6     2     1     2   103     0  1.4017953732e+02  6.0016904881e+01 -1.8705922119e+02  2.9563573407e+02  1.7075421949e+02  8.548790e-14 9.
       -6     2     1     2     0   102 -1.4017953732e+02 -6.0016904881e+01 -1.0804877658e+02  2.5271577289e+02  1.7011288074e+02  8.705331e-15 9.
       24     2     3     0     0     0  1.1463238002e+02 -6.7908817798e+00 -1.7312745078e+02  2.2260785014e+02  7.9965255627e+01  1.124303e-13 9.
        5     1     3     0   103     0  2.5547157292e+01  6.6807786661e+01 -1.3931770416e+01  7.3027883930e+01  4.8000000000e+00 0. 9.
      -24     2     4     0     0     0 -1.3627584609e+02 -1.9133258592e+00 -1.1408139802e+02  1.9397313742e+02  7.7693279138e+01  1.368559e-13 9.
       -5     1     4     0     0   102 -3.9036912225e+00 -5.8103579022e+01  6.0326214389e+00  5.8742635468e+01  4.8000000000e+00 0. 9.
      -11     1     5     0     0     0  8.8567277571e+01  1.3269815580e+00 -6.1858692712e+01  1.0803898093e+02  5.1100000000e-04 0. 9.
       12     1     5     0     0     0  2.6065102452e+01 -8.1178633378e+00 -1.1126875806e+02  1.1456886921e+02  0.0000000000e+00 0. 9.
        1     1     7     0   104     0 -1.6133651447e+01  1.2529737910e+01 -5.6271592891e+01  5.9865600369e+01  3.3000000000e-01 0. 9.
       -2     1     7     0     0   104 -1.2014219465e+02 -1.4443063770e+01 -5.7809805131e+01  1.3410753705e+02  3.3000000000e-01 0. 9.
#pdf   21   21  1.948027e-02  6.488150e-02  2.284529e+02  4.707652e+00  1.400859e+00
</event>
<event>
    12  9999  1.000000e+00  1.885738e+02  7.882429e-03  1.064955e-01
       21    -1     0     0   101   102  0.0000000000e+00  0.0000000000e+00  2.8115248299e+01  2.8115248299e+01  0.0000000000e+00 0. 9.
       21    -1     0     0   102   103  0.0000000000e+00  0.0000000000e+00 -1.3444267664e+03  1.3444267664e+03  0.0000000000e+00 0. 9.
        6     2     1     2   101     0  3.7315898715e+01 -7.1339631145e+01 -4.8364057968e+02  5.1825979096e+02  1.6793802828e+02  5.983772e-14 9.
       -6     2     1     2     0   103 -3.7315898715e+01  7.1339631145e+01 -8.3267093837e+02  8.5428222369e+02  1.7313407184e+02  3.172940e-14 9.
       24     2     3     0     0     0 -4.5288857874e+01 -2.3474890572e+01 -2.5963021469e+02  2.7470638239e+02  7.3848473329e+01  1.599099e-13 9.
        5     1     3     0   101     0  8.2604756589e+01 -4.7864740573e+01 -2.2401036499e+02  2.4355340857e+02  4.8000000000e+00 0. 9.
      -24     2     4     0     0     0 -7.0325473538e+00  2.1548334992e+01 -1.8215709473e+02  2.0114551877e+02  8.2246733053e+01  2.390639e-15 9.
       -5     1     4     0     0   103 -3.0283351361e+01  4.9791296153e+01 -6.5051384364e+02  6.5313670492e+02  4.8000000000e+00 0. 9.
       -3     1     5     0     0   104 -8.9161849827e+00 -2.6671087472e+01 -2.6218618667e+01  3.8451413841e+01  5.0000000000e-01 0. 9.
        4     1     5     0   104     0 -3.6372672892e+01  3.1961968996e+00 -2.3341159602e+02  2.3625496855e+02  1.5000000000e+00 0. 9.
        1     1     7     0   105     0  2.4859805425e+00  2.8373022749e+01 -1.8649027159e+02  1.8865295867e+02  3.3000000000e-01 0. 9.
       -2     1     7     0     0   105 -9.5185278963e+00 -6.8246877572e+00  4.3331768522e+00  1.2492560103e+01  3.3000000000e-01 0. 9.
#pdf   21   21  4.325423e-03  2.068349e-01  1.862391e+02  1.483975e+01  2.527940e-01
</event>
<event>
    12  9999  1.000000e+00  2.373070e+02  7.903193e-03  1.035857e-01
       21    -1     0     0   101   102  0.0000000000e+00  0.0000000000e+00  3.8554055564e+02  3.8554055564e+02  0.0000000000e+00 0. 9.
       21    -1     0     0   102   103  0.0000000000e+00  0.0000000000e+00 -1.4609249689e+02  1.4609249689e+02  0.0000000000e+00 0. 9.
        6     2     1     2   101     0 -1.3065209638e+02 -1.0071648596e+02  1.2267778148e+02  2.6636463158e+02  1.6937088904e+02  1.336405e-13 9.
       -6     2     1     2     0   103  1.3065209638e+02  1.0071648596e+02  1.1677027726e+02  2.6526842095e+02  1.7180877938e+02  8.746456e-14 9.
       24     2     3     0     0     0 -5.6478382441e+01 -1.1895057320e+02  1.0686788481e+02  1.8821596166e+02  8.1642249320e+01  3.202366e-13 9.
        5     1     3     0   101     0 -7.4173713935e+01  1.8234087238e+01  1.5809896674e+01  7.8148669913e+01  4.8000000000e+00 0. 9.
      -24     2     4     0     0     0  3.5302257370e+01  7.6985597112e+00  9.5585896445e+01  1.3030270534e+02  8.0849330372e+01  8.835459e-15 9.
       -5     1     4     0     0   103  9.5349839006e+01  9.3017926246e+01  2.1184380816e+01  1.3496571562e+02  4.8000000000e+00 0. 9.
       -3     1     5     0     0   104 -1.9549604867e+01 -7.5915136020e+01  1.0554408234e+02  1.3147280420e+02  5.0000000000e-01 0. 9.
        4     1     5     0   104     0 -3.6928777574e+01 -4.3035437175e+01  1.3238024726e+00  5.6743157463e+01  1.5000000000e+00 0. 9.
       15     1     7     0     0     0  5.8796288033e+01  7.9750615838e+00  8.6927832288e+01  1.0526257744e+02  1.7768200000e+00  2.237252e-01 9.
      -16     1     7     0     0     0 -2.3494030663e+01 -2.7650187262e-01  8.6580641569e+00  2.5040127895e+01  0.0000000000e+00 0. 9.
#pdf   21   21  5.931393e-02  2.247577e-02  2.364324e+02  1.551792e+00  4.144910e+00
</event>
<event>
    12  9999  1.000000e+00  2.127743e+02  7.893322e-03  1.049467e-01
       21    -1     0     0   101   102  0.0000000000e+00  0.0000000000e+00  2.1674138580e+02  2.1674138580e+02  0.0000000000e+00 0. 9.
       21    -1     0     0   102   103  0.0000000000e+00  0.0000000000e+00 -3.4258496037e+02  3.4258496037e+02  0.0000000000e+00 0. 9.
        6     2     1     2   101     0 -6.1207094227e+01 -1.1205718054e+02  1.1161592532e+02  2.4111707074e+02  1.7139488593e+02  1.066963e-13 9.
       -6     2     1     2     0   103  6.1207094227e+01  1.1205718054e+02 -2.3745949988e+02  3.1820927543e+02  1.6901777655e+02  1.669726e-13 9.
       24     2     3     0     0     0 -2.0975068813e+01  9.1322127540e+00  5.1160174024e+01  9.9754335974e+01  8.2524016613e+01  1.125990e-13 9.
        5     1     3     0   101     0 -4.0232025415e+01 -1.2118939329e+02  6.0455751293e+01  1.4136273476e+02  4.8000000000e+00 0. 9.
      -24     2     4     0     0     0  5.1441903601e+01  8.0919581499e+01 -2.5177730731e+02  2.8225168052e+02  8.4142442132e+01  1.142850e-14 9.
       -5     1     4     0     0   103  9.7651906264e+00  3.1137599040e+01  1.4317807423e+01  3.5957594905e+01  4.8000000000e+00 0. 9.
       -3     1     5     0     0   104 -2.0771315669e+01  1.4662444772e+01 -1.7490745130e+01  3.0864397070e+01  5.0000000000e-01 0. 9.
        4     1     5     0   104     0 -2.0375314385e-01 -5.5302320181e+00  6.8650919154e+01  6.8889938904e+01  1.5000000000e+00 0. 9.
       15     1     7     0     0     0  1.5648338134e+01  6.2864788409e+01 -6.7152553894e+01  9.3324566390e+01  1.7768200000e+00  9.957716e-02 9.
      -16     1     7     0     0     0  3.5793565467e+01  1.8054793090e+01 -1.8462475341e+02  1.8892711413e+02  0.0000000000e+00 0. 9.
#pdf   21   21  3.334483e-02  5.270538e-02  2.118257e+02  2.876304e+00  1.787274e+00
</event>
<event>
    12  9999  1.000000e+00  3.213755e+02  7.930754e-03  9.998464e-02
       -2    -1     0     0     0   101  0.0000000000e+00  0.0000000000e+00  2.8766242716e+02  2.8766242716e+02  0.0000000000e+00 0. 9.
        2    -1     0     0   102     0  0.0000000000e+00  0.0000000000e+00 -3.7364723145e+02  3.7364723145e+02  0.0000000000e+00 0. 9.
       -6     2     1     2     0   101 -2.7278236929e+02 -1.0945880132e+01 -1.0827299623e+02  3.3843754090e+02  1.6818708063e+02  1.955644e-13 9.
        6     2     1     2   102     0  2.7278236929e+02  1.0945880132e+01  2.2288191943e+01  3.2287211772e+02  1.7093743771e+02  9.449858e-14 9.
      -24     2     3     0     0     0 -1.4104719170e+02  3.0034406096e+01 -1.9467619687e+00  1.6419102310e+02  7.8476278881e+01  7.436541e-14 9.
       -5     1     3     0     0   101 -1.3173517759e+02 -4.0980286228e+01 -1.0632623427e+02  1.7424651780e+02  4.8000000000e+00 0. 9.
       24     2     4     0     0     0  8.3073147104e+01 -5.2384874450e+00 -4.0752856005e+01  1.2225124028e+02  7.9724406279e+01  3.387355e-14 9.
        5     1     4     0   102     0  1.8970922219e+02  1.6184367577e+01  6.3041047948e+01  2.0062087744e+02  4.8000000000e+00 0. 9.
       15     1     5     0     0     0 -7.7734857596e+01  4.9338103793e+00 -3.8489528723e+01  8.6900238671e+01  1.7768200000e+00  3.481560e-02 9.
      -16     1     5     0     0     0 -6.3312334107e+01  2.5100595717e+01  3.6542766754e+01  7.7290784428e+01  0.0000000000e+00 0. 9.
      -11     1     7     0     0     0  9.1050834917e+01 -2.1991416727e+01 -4.3874189025e+01  1.0343510725e+02  5.1100000000e-04 0. 9.
       12     1     7     0     0     0 -7.9776878132e+00  1.6752929282e+01  3.1213330204e+00  1.8816133029e+01  0.0000000000e+00 0. 9.
#pdf   -2    2  4.425576e-02  5.748419e-02  3.206508e+02  1.751692e-01  6.141574e-01
</event>
<event>
    12  9999  1.000000e+00  2.588836e+02  7.911082e-03  1.025257e-01
        1    -1     0     0   101     0  0.0000000000e+00  0.0000000000e+00  1.7567492361e+02  1.7567492361e+02  0.0000000000e+00 0. 9.
       -1    -1     0     0     0   102  0.0000000000e+00  0.0000000000e+00 -3.8533397756e+02  3.8533397756e+02  0.0000000000e+00 0. 9.
        6     2     1     2   101     0 -6.5147551606e+01 -1.8310658169e+02 -1.3278518835e+02  2.9093046937e+02  1.7098657265e+02  2.075494e-13 9.
       -6     2     1     2     0   102  6.5147551606e+01  1.8310658169e+02 -7.6873865600e+01  2.7007843180e+02  1.7105713775e+02  2.362167e-14 9.
       24     2     3     0     0     0 -7.7241976989e+01 -7.8575150237e+01 -2.0465044975e+01  1.3694361963e+02  7.8704254314e+01  1.647392e-13 9.
        5     1     3     0   101     0  1.2094425383e+01 -1.0453143145e+02 -1.1232014338e+02  1.5398684975e+02  4.8000000000e+00 0. 9.
      -24     2     4     0     0     0  2.9850039861e+01  7.0056773346e+01  2.4915300354e+01  1.1384063930e+02  8.0869911539e+01  1.585531e-15 9.
       -5     1     4     0     0   102  3.5297511745e+01  1.1304980834e+02 -1.0178916595e+02  1.5623779251e+02  4.8000000000e+00 0. 9.
      -13     1     5     0     0     0 -7.3687724255e+01 -2.1665596556e+01 -2.2023246001e+01  7.9901898028e+01  1.0566000000e-01  3.692199e+05 9.
       14     1     5     0     0     0 -3.5542527333e+00 -5.6909553681e+01  1.5582010258e+00  5.7041721600e+01  0.0000000000e+00 0. 9.
        1     1     7     0   103     0 -7.9203901030e+00  2.3245901677e+01 -2.5465322243e+01  3.5379316854e+01  3.3000000000e-01 0. 9.
       -2     1     7     0     0   103  3.7770429964e+01  4.6810871669e+01  5.0380622597e+01  7.8461322442e+01  3.3000000000e-01 0. 9.
#pdf    1   -1  2.702691e-02  5.928215e-02  2.588603e+02  5.084050e-01  1.628504e-01
</event>
<event>
    12  9999  1.000000e+00  1.776959e+02  7.877080e-03  1.072748e-01
       21    -1     0     0   101   102  0.0000000000e+00  0.0000000000e+00  1.9487411892e+02  1.9487411892e+02  0.0000000000e+00 0. 9.
       21    -1     0     0   102   103  0.0000000000e+00  0.0000000000e+00 -2.0834026696e+02  2.0834026696e+02  0.0000000000e+00 0. 9.
        6     2     1     2   101     0  4.2689740392e+01  1.6882893536e+01  8.8343471412e+01  1.9729273229e+02  1.7033028869e+02  3.509292e-14 9.
       -6     2     1     2     0   103 -4.2689740392e+01 -1.6882893536e+01 -1.0180961946e+02  2.0592165359e+02  1.7300601947e+02  1.935374e-13 9.
       24     2     3     0     0     0  2.3658347190e+01  7.6625951206e+01  7.2307822147e+01  1.3239582240e+02  7.6609260891e+01  3.029780e-14 9.
        5     1     3     0   101     0  1.9031393202e+01 -5.9743057670e+01  1.6035649264e+01  6.4896909898e+01  4.8000000000e+00 0. 9.
      -24     2     4     0     0     0 -7.3093594534e+01 -4.5105984461e+01 -3.1859757417e+01  1.2445411154e+02  8.4241072763e+01  4.764455e-13 9.
       -5     1     4     0     0   103  3.0403854142e+01  2.8223090925e+01 -6.9949862038e+01  8.1467542047e+01  4.8000000000e+00 0. 9.
       -3     1     5     0     0   104  7.6126261098e-01  2.0135017925e+01 -1.5547375259e+01  2.5455241995e+01  5.0000000000e-01 0. 9.
        4     1     5     0   104     0  2.2897084579e+01  5.6490933281e+01  8.7855197406e+01  1.0694058040e+02  1.5000000000e+00 0. 9.
       13     1     7     0     0     0 -5.2891871086e+01  1.2116677464e+01 -3.3459940481e+01  6.3749060234e+01  1.0566000000e-01  1.305627e+06 9.
      -14     1     7     0     0     0 -2.0201723448e+01 -5.7222661925e+01  1.6001830634e+00  6.0705051305e+01  0.0000000000e+00 0. 9.
#pdf   21   21  2.998063e-02  3.205235e-02  1.764082e+02  3.208689e+00  3.010919e+00
</event>
<event>
    12  9999  1.000000e+00  1.928580e+02  7.884453e-03  1.062038e-01
       21    -1     0     0   101   102  0.0000000000e+00  0.0000000000e+00  5.4119082246e+02  5.4119082246e+02  0.0000000000e+00 0. 9.
       21    -1     0     0   103   101  0.0000000000e+00  0.0000000000e+00 -8.4248366229e+01  8.4248366229e+01  0.0000000000e+00 0. 9.
        6     2     1     2   103     0  8.8107449770e+01  2.6447626164e+01  9.4250216484e+01  2.1466320445e+02  1.6951338709e+02  1.872771e-15 9.
       -6     2     1     2     0   102 -8.8107449770e+01 -2.6447626164e+01  3.6269223975e+02  4.1077598424e+02  1.6949586667e+02  9.786368e-13 9.
       24     2     3     0     0     0  1.0999564707e+02 -1.2724020335e+01  9.9979909530e+01  1.6917276092e+02  7.9765266002e+01  6.481619e-14 9.
        5     1     3     0   103     0 -2.1888197298e+01  3.9171646499e+01 -5.7296930459e+00  4.5490443532e+01  4.8000000000e+00 0. 9.
      -24     2     4     0     0     0 -2.6195015272e+01 -5.2979103579e+01  3.0766897307e+02  3.2366875885e+02  8.1291476935e+01  2.295906e-13 9.
       -5     1     4     0     0   102 -6.1912434498e+01  2.6531477415e+01  5.5023266678e+01  8.7107225390e+01  4.8000000000e+00 0. 9.
       -1     1     5     0     0   104 -6.6172225549e+00 -6.5740511906e+00 -6.3110151830e+00  1.1266924871e+01  3.3000000000e-01 0. 9.
        2     1     5     0   104     0  1.1661286962e+02 -6.1499691442e+00  1.0629092471e+02  1.5790583605e+02  3.3000000000e-01 0. 9.
        1     1     7     0   105     0  2.8382400413e+01 -2.9152672486e+01  1.1352008736e+02  1.2059169996e+02  3.3000000000e-01 0. 9.
       -2     1     7     0     0   105 -5.4577415685e+01 -2.3826431092e+01  1.9414888572e+02  2.0307705889e+02  3.3000000000e-01 0. 9.
#pdf   21   21  8.326013e-02  1.296129e-02  1.928503e+02  1.045841e+00  6.624079e+00
</event>
<event>
    12  9999  1.000000e+00  2.806189e+02  7.918405e-03  1.015631e-01
       21    -1     0     0   101   102  0.0000000000e+00  0.0000000000e+00  3.1121412439e+02  3.1121412439e+02  0.0000000000e+00 0. 9.
       21    -1     0     0   103   101  0.0000000000e+00  0.0000000000e+00 -2.5404383903e+02  2.5404383903e+02  0.0000000000e+00 0. 9.
        6     2     1     2   103     0 -5.2252574458e+01  2.1625741280e+02  1.0738666360e+01  2.8077459015e+02  1.7094283077e+02  8.270413e-14 9.
       -6     2     1     2     0   102  5.2252574458e+01 -2.1625741280e+02  4.6431618999e+01  2.8448337327e+02  1.7110609076e+02  6.598760e-14 9.
       24     2     3     0     0     0 -1.3341295019e+01  4.7200658191e+01  4.3759513001e+01  1.0411760540e+02  8.0744587996e+01  8.020657e-15 9.
        5     1     3     0   103     0 -3.8911279439e+01  1.6905675461e+02 -3.3020846641e+01  1.7665698474e+02  4.8000000000e+00 0. 9.
      -24     2     4     0     0     0  8.6417031722e+01 -1.1142318774e+02  6.1392405096e+01  1.7310882499e+02  7.9464506219e+01  5.597675e-14 9.
       -5     1     4     0     0   102 -3.4164457264e+01 -1.0483422506e+02 -1.4960786096e+01  1.1137454828e+02  4.8000000000e+00 0. 9.
       -3     1     5     0     0   104 -4.4389196833e+01  9.1251456829e+00  2.0604713201e+01  4.9784267447e+01  5.0000000000e-01 0. 9.
        4     1     5     0   104     0  3.1047901814e+01  3.8075512508e+01  2.3154799800e+01  5.4333337957e+01  1.5000000000e+00 0. 9.
        1     1     7     0   105     0  1.9504838225e+01 -8.5293401239e+01  1.8456358385e+01  8.9421189177e+01  3.3000000000e-01 0. 9.
       -2     1     7     0     0   105  6.6912193497e+01 -2.6129786504e+01  4.2936046710e+01  8.3687635816e+01  3.3000000000e-01 0. 9.
#pdf   21   21  4.787910e-02  3.908367e-02  2.805692e+02  1.950306e+00  2.419135e+00
</event>
<event>
    12  9999  1.000000e+00  1.910142e+02  7.883588e-03  1.063283e-01
       21    -1     0     0   101   102  0.0000000000e+00  0.0000000000e+00  6.8516235277e+02  6.8516235277e+02  0.0000000000e+00 0. 9.
       21    -1     0     0   103   101  0.0000000000e+00  0.0000000000e+00 -1.5368338370e+02  1.5368338370e+02  0.0000000000e+00 0. 9.
        6     2     1     2   103     0  3.7567929473e+01  7.7337259637e+01 -7.3487847046e+01  2.0433268158e+02  1.7017338230e+02  3.710270e-13 9.
       -6     2     1     2     0   102 -3.7567929473e+01 -7.7337259637e+01  6.0496681611e+02  6.3451305489e+02  1.7096656742e+02  9.048722e-14 9.
       24     2     3     0     0     0  1.1764049814e+01  6.8538710709e+01  1.7988900812e+01  1.0875920164e+02  8.1664041388e+01  2.416503e-13 9.
        5     1     3     0   103     0  2.5803879659e+01  8.7985489276e+00 -9.1476747858e+01  9.5573479937e+01  4.8000000000e+00 0. 9.
      -24     2     4     0     0     0 -6.2842744874e+01 -5.1373142854e+01  2.0814784458e+02  2.3601426215e+02  7.6084139882e+01  1.524226e-14 9.
       -5     1     4     0     0   102  2.5274815401e+01 -2.5964116783e+01  3.9681897153e+02  3.9849879274e+02  4.8000000000e+00 0. 9.
       -1     1     5     0     0   104 -1.3993468833e+01  8.4572691386e+00 -2.5464525791e+01  3.0263733164e+01  3.3000000000e-01 0. 9.
        2     1     5     0   104     0  2.5757518647e+01  6.0081441571e+01  4.3453426603e+01  7.8495468478e+01  3.3000000000e-01 0. 9.
        1     1     7     0   105     0  6.3631555804e+00  9.1008658258e+00  3.4533748343e+00  1.1634010721e+01  3.3000000000e-01 0. 9.
       -2     1     7     0     0   105 -6.9205900454e+01 -6.0474008680e+01  2.0469446975e+02  2.2438025142e+02  3.3000000000e-01 0. 9.
#pdf   21   21  1.054096e-01  2.364360e-02  1.906604e+02  7.641823e-01  3.983653e+00
</event>
<event>
    12  9999  1.000000e+00  1.839400e+02  7.880188e-03  1.068204e-01
       21    -1     0     0   101   102  0.0000000000e+00  0.0000000000e+00  2.7615909778e+02  2.7615909778e+02  0.0000000000e+00 0. 9.
       21    -1     0     0   103   101  0.0000000000e+00  0.0000000000e+00 -1.2450735774e+02  1.2450735774e+02  0.0000000000e+00 0. 9.
        6     2     1     2   103     0 -5.6849467953e+01 -2.7217008742e+01  5.0816032926e+01  1.9157292694e+02  1.7362398902e+02  9.535378e-14 9.
       -6     2     1     2     0   102  5.6849467953e+01  2.7217008742e+01  1.0083570712e+02  2.0909352858e+02  1.7198731434e+02  4.874910e-15 9.
       24     2     3     0     0     0 -2.4530765870e+01  2.3444618081e+01  8.5660612734e+01  1.2194330911e+02  7.9881296137e+01  8.812739e-16 9.
        5     1     3     0   103     0 -3.2318702082e+01 -5.0661626823e+01 -3.4844579808e+01  6.9629617826e+01  4.8000000000e+00 0. 9.
      -24     2     4     0     0     0  3.0472644396e+01  6.5678207356e+01  1.1530465444e+01  1.0822992360e+02  7.9615047264e+01  3.035375e-15 9.
       -5     1     4     0     0   102  2.6376823556e+01 -3.8461198614e+01  8.9305241675e+01  1.0086360498e+02  4.8000000000e+00 0. 9.
       -1     1     5     0     0   104 -2.1814592234e+01  4.6625110890e+01  2.5568678788e+01  5.7477331487e+01  3.3000000000e-01 0. 9.
        2     1     5     0   104     0 -2.7161736365e+00 -2.3180492809e+01  6.0091933945e+01  6.4465977627e+01  3.3000000000e-01 0. 9.
        1     1     7     0   105     0  6.6622275363e+00 -1.6947741050e+01 -8.2510643599e+00  1.9995003514e+01  3.3000000000e-01 0. 9.
       -2     1     7     0     0   105  2.3810416860e+01  8.2625948406e+01  1.9781529804e+01  8.8234920085e+01  3.3000000000e-01 0. 9.
#pdf   21   21  4.248602e-02  1.915498e-02  1.831728e+02  2.270573e+00  4.795748e+00
</event>
<event>
    12  9999  1.000000e+00  2.254791e+02  7.898565e-03  1.042189e-01
       21    -1     0     0   101   102  0.0000000000e+00  0.0000000000e+00  3.1473099788e+02  3.1473099788e+02  0.0000000000e+00 0. 9.
       21    -1     0     0   102   103  0.0000000000e+00  0.0000000000e+00 -1.8063375719e+02  1.8063375719e+02  0.0000000000e+00 0. 9.
        6     2     1     2   101     0  8.7100539022e+01 -1.1488004465e+02  1.4731908339e+02  2.6853860698e+02  1.7212246381e+02  5.874536e-14 9.
       -6     2     1     2     0   103 -8.7100539022e+01  1.1488004465e+02 -1.3221842697e+01  2.2682614809e+02  1.7461774187e+02  2.392679e-13 9.
       24     2     3     0     0     0  1.7864228331e+01 -1.8530167905e+01  1.1931323695e+02  1.4653724263e+02  8.1086479705e+01  4.434371e-13 9.
        5     1     3     0   101     0  6.9236310690e+01 -9.6349876747e+01  2.8005846445e+01  1.2200136435e+02  4.8000000000e+00 0. 9.
      -24     2     4     0     0     0 -9.8137645489e+01  8.7678169086e+01 -6.3502199848e+01  1.6840599687e+02  8.3723303801e+01  2.110523e-14 9.
       -5     1     4     0     0   103  1.1037106467e+01  2.7201875566e+01  5.0280357151e+01  5.8420151221e+01  4.8000000000e+00 0. 9.
       -3     1     5     0     0   104 -5.0475144308e+00 -8.3826627084e+00 -1.0475348424e+01  1.4343268826e+01  5.0000000000e-01 0. 9.
        4     1     5     0   104     0  2.2911742762e+01 -1.0147505197e+01  1.2978858537e+02  1.3219397381e+02  1.5000000000e+00 0. 9.
        3     1     7     0   105     0 -9.1807490166e+01  4.0070772047e+01 -1.7125447363e+01  1.0162584794e+02  5.0000000000e-01 0. 9.
       -4     1     7     0     0   105 -6.3301553226e+00  4.7607397040e+01 -4.6376752485e+01  6.6780148924e+01  1.5000000000e+00 0. 9.
#pdf   21   21  4.842015e-02  2.778981e-02  2.245219e+02  1.953682e+00  3.417039e+00
</event>
<event>
    12  9999  1.000000e+00  1.992055e+02  7.887373e-03  1.057862e-01
       21    -1     0     0   101   102  0.0000000000e+00  0.0000000000e+00  4.3449057167e+01  4.3449057167e+01  0.0000000000e+00 0. 9.
       21    -1     0     0   103   101  0.0000000000e+00  0.0000000000e+00 -2.0149727765e+03  2.0149727765e+03  0.0000000000e+00 0. 9.
        6     2     1     2   103     0 -4.6770487673e+01 -9.5880817815e+01 -1.7403762413e+03  1.7514247520e+03  1.6491995270e+02  6.577274e-14 9.
       -6     2     1     2     0   102  4.6770487673e+01  9.5880817815e+01 -2.3114747797e+02  3.0699708163e+02  1.7157342981e+02  1.248176e-15 9.
       24     2     3     0     0     0 -4.7644821352e+01 -1.1153268304e+02 -9.8993309376e+02  1.0008025414e+03  8.3238382527e+01  5.579290e-14 9.
        5     1     3     0   103     0  8.7433367920e-01  1.5651865223e+01 -7.5044314758e+02  7.5062221063e+02  4.8000000000e+00 0. 9.
      -24     2     4     0     0     0 -1.8179990769e+01  1.0230031100e+02 -1.8440510739e+02  2.2657529509e+02  8.0840924164e+01  1.556377e-14 9.
       -5     1     4     0     0   102  6.4950478442e+01 -6.4194931846e+00 -4.6742370581e+01  8.0421786539e+01  4.8000000000e+00 0. 9.
      -13     1     5     0     0     0 -5.4260510485e+01 -4.8258918368e+01 -3.3462284836e+02  3.4241143090e+02  1.0566000000e-01  3.409866e+05 9.
       14     1     5     0     0     0  6.6156891335e+00 -6.3273764669e+01 -6.5531024539e+02  6.5839111048e+02  0.0000000000e+00 0. 9.
        3     1     7     0   104     0 -2.4592876738e+01  8.3039901294e+01 -1.8702488573e+02  2.0610432474e+02  5.0000000000e-01 0. 9.
       -2     1     7     0     0   104  6.4128859692e+00  1.9260409705e+01  2.6197783463e+00  2.0470970349e+01  3.3000000000e-01 0. 9.
#pdf   21   21  6.684470e-03  3.099958e-01  1.964159e+02  1.095485e+01  9.221171e-02
</event>
<event>
    12  9999  1.000000e+00  1.797066e+02  7.878092e-03  1.071263e-01
       21    -1     0     0   101   102  0.0000000000e+00  0.0000000000e+00  4.0759522993e+02  4.0759522993e+02  0.0000000000e+00 0. 9.
       21    -1     0     0   103   101  0.0000000000e+00  0.0000000000e+00 -8.4466292746e+01  8.4466292746e+01  0.0000000000e+00 0. 9.
        6     2     1     2   103     0  9.1673571914e+01  1.5277678423e+01  2.2751632530e+02  2.9393973560e+02  1.6124341426e+02  2.686924e-13 9.
       -6     2     1     2     0   102 -9.1673571914e+01 -1.5277678423e+01  9.5612611890e+01  1.9812178708e+02  1.4653675211e+02  4.654372e-16 9.
       24     2     3     0     0     0  5.3187996071e+01  7.0043879022e+01  1.3383985710e+02  1.7870607311e+02  7.9294673870e+01  6.243626e-15 9.
        5     1     3     0   103     0  3.8485575843e+01 -5.4766200599e+01  9.3676468199e+01  1.1523366249e+02  4.8000000000e+00 0. 9.
      -24     2     4     0     0     0 -9.8953038403e+01 -4.4199503144e+01  5.0409931525e+01  1.4375465648e+02  7.9868267640e+01  2.710527e-14 9.
       -5     1     4     0     0   102  7.2794664890e+00  2.8921824721e+01  4.5202680365e+01  5.4367130600e+01  4.8000000000e+00 0. 9.
       -3     1     5     0     0   104  1.4802507395e+00  7.4042547779e+00  8.1974619117e+01  8.2323157802e+01  5.0000000000e-01 0. 9.
        4     1     5     0   104     0  5.1707745331e+01  6.2639624244e+01  5.1865237982e+01  9.6382915310e+01  1.5000000000e+00 0. 9.
        1     1     7     0   105     0 -8.9721047012e+01 -5.0377918145e+00  1.7002969048e+01  9.1457397075e+01  3.3000000000e-01 0. 9.
       -2     1     7     0     0   105 -9.2319913913e+00 -3.9161711330e+01  3.3406962477e+01  5.2297259405e+01  3.3000000000e-01 0. 9.
#pdf   21   21  6.270696e-02  1.299481e-02  1.735237e+02  1.488791e+00  6.607711e+00
</event>
<event>
    12  9999  1.000000e+00  2.442955e+02  7.905822e-03  1.032297e-01
       21    -1     0     0   101   102  0.0000000000e+00  0.0000000000e+00  2.9955689453e+02  2.9955689453e+02  0.0000000000e+00 0. 9.
       21    -1     0     0   102   103  0.0000000000e+00  0.0000000000e+00 -2.6692437486e+02  2.6692437486e+02  0.0000000000e+00 0. 9.
        6     2     1     2   101     0  6.0991243900e+01  1.6400432316e+02  1.5893445316e+02  2.9108678667e+02  1.6986467299e+02  4.203845e-14 9.
       -6     2     1     2     0   103 -6.0991243900e+01 -1.6400432316e+02 -1.2630193349e+02  2.7539448273e+02  1.7109235187e+02  2.000544e-13 9.
       24     2     3     0     0     0  1.0331927174e+02  1.4892108737e+02  1.2199978883e+02  2.3272262497e+02  8.0146799815e+01  4.028956e-14 9.
        5     1     3     0   101     0 -4.2328027841e+01  1.5083235788e+01  3.6934664322e+01  5.8364161704e+01  4.8000000000e+00 0. 9.
      -24     2     4     0     0     0 -7.0824742344e+01 -5.9135356939e+01 -1.8415588852e+01  1.2454123906e+02  8.1598111160e+01  4.795621e-14 9.
       -5     1     4     0     0   103  9.8334984445e+00 -1.0486896622e+02 -1.0788634463e+02  1.5085324367e+02  4.8000000000e+00 0. 9.
       -1     1     5     0     0   104  3.1677626191e+01  3.4088267920e+01 -5.3979727073e+00  4.6847935069e+01  3.3000000000e-01 0. 9.
        2     1     5     0   104     0  7.1641645550e+01  1.1483281945e+02  1.2739776154e+02  1.8587468990e+02  3.3000000000e-01 0. 9.
        1     1     7     0   105     0 -2.4808481097e+01 -1.8599525020e+00  2.8139656218e+01  3.7561540300e+01  3.3000000000e-01 0. 9.
       -2     1     7     0     0   105 -4.6016261247e+01 -5.7275404437e+01 -4.6555245070e+01  8.6979698758e+01  3.3000000000e-01 0. 9.
#pdf   21   21  4.608568e-02  4.106529e-02  2.438675e+02  2.050035e+00  2.315557e+00
</event>
<event>
    12  9999  1.000000e+00  1.955554e+02  7.885706e-03  1.060243e-01
       21    -1     0     0   101   102  0.0000000000e+00  0.0000000000e+00  3.1690714038e+02  3.1690714038e+02  0.0000000000e+00 0. 9.
       21    -1     0     0   102   103  0.0000000000e+00  0.0000000000e+00 -3.2100537081e+02  3.2100537081e+02  0.0000000000e+00 0. 9.
        6     2     1     2   101     0  7.0052381585e+01  6.3487096937e+01  2.4992333889e+02  3.1682389732e+02  1.7022854916e+02  1.278726e-13 9.
       -6     2     1     2     0   103 -7.0052381585e+01 -6.3487096937e+01 -2.5402156931e+02  3.2108861387e+02  1.7214236153e+02  5.570631e-16 9.
       24     2     3     0     0     0  2.6176367141e+01  7.9554739429e+00  2.2711551268e+02  2.4231146391e+02  7.9905554756e+01  1.064957e-13 9.
        5     1     3     0   101     0  4.3876014445e+01  5.5531622994e+01  2.2807826207e+01  7.4512433407e+01  4.8000000000e+00 0. 9.
      -24     2     4     0     0     0 -1.6797949038e+01 -9.9919273333e+01 -1.4400537696e+02  1.9345656208e+02  8.0136511923e+01  8.773931e-14 9.
       -5     1     4     0     0   103 -5.3254432547e+01  3.6432176396e+01 -1.1001619235e+02  1.2763205179e+02  4.8000000000e+00 0. 9.
       -3     1     5     0     0   104 -2.7035874076e+01  1.0577364774e+01  1.0763067414e+02  1.1147838871e+02  5.0000000000e-01 0. 9.
        4     1     5     0   104     0  5.3212241217e+01 -2.6218908315e+00  1.1948483854e+02  1.3083307520e+02  1.5000000000e+00 0. 9.
        3     1     7     0   105     0 -2.8445619769e+01 -2.2617593437e+00 -1.8520351343e+01  3.4022378712e+01  5.0000000000e-01 0. 9.
       -2     1     7     0     0   105  1.1647670731e+01 -9.7657513989e+01 -1.2548502562e+02  1.5943418337e+02  3.3000000000e-01 0. 9.
#pdf   21   21  4.875494e-02  4.938544e-02  1.947196e+02  1.956667e+00  1.929704e+00
</event>
<event>
    12  9999  1.000000e+00  1.902482e+02  7.883226e-03  1.063805e-01
       21    -1     0     0   101   102  0.0000000000e+00  0.0000000000e+00  1.5645965383e+02  1.5645965383e+02  0.0000000000e+00 0. 9.
       21    -1     0     0   103   101  0.0000000000e+00  0.0000000000e+00 -2.4622606097e+02  2.4622606097e+02  0.0000000000e+00 0. 9.
        6     2     1     2   103     0  4.0922545912e+01  6.7949436609e+01 -9.4749512608e+01  2.1409360042e+02  1.7483368927e+02  9.495708e-14 9.
       -6     2     1     2     0   102 -4.0922545912e+01 -6.7949436609e+01  4.9831054718e+00  1.8859211438e+02  1.7102740589e+02  1.414629e-13 9.
       24     2     3     0     0     0 -9.4157153884e+00  8.7902166657e+01 -1.0372830016e+02  1.5899631725e+02  8.1882977751e+01  7.858749e-14 9.
        5     1     3     0   103     0  5.0338261300e+01 -1.9952730048e+01  8.9787875551e+00  5.5097283173e+01  4.8000000000e+00 0. 9.
      -24     2     4     0     0     0  7.7619057221e+00 -3.3171874258e+01  6.2240836697e+01  1.0563946247e+02  7.8263362154e+01  5.204603e-14 9.
       -5     1     4     0     0   102 -4.8684451634e+01 -3.4777562352e+01 -5.7257731225e+01  8.2952651911e+01  4.8000000000e+00 0. 9.
       -3     1     5     0     0   104  9.3778739399e+00  4.6773962313e+01 -2.1018170490e+00  4.7753698338e+01  5.0000000000e-01 0. 9.
        4     1     5     0   104     0 -1.8793589328e+01  4.1128204345e+01 -1.0162648311e+02  1.1124261891e+02  1.5000000000e+00 0. 9.
        1     1     7     0   105     0  1.9854453078e+01 -5.4985125160e+01  3.2729752744e+01  6.6999320224e+01  3.3000000000e-01 0. 9.
       -2     1     7     0     0   105 -1.2092547356e+01  2.1813250902e+01  2.9511083954e+01  3.8640142244e+01  3.3000000000e-01 0. 9.
#pdf   21   21  2.407072e-02  3.788093e-02  1.885263e+02  3.921121e+00  2.548588e+00
</event>
<event>
    12  9999  1.000000e+00  1.917095e+02  7.883915e-03  1.062812e-01
       21    -1     0     0   101   102  0.0000000000e+00  0.0000000000e+00  9.4713815524e+01  9.4713815524e+01  0.0000000000e+00 0. 9.
       21    -1     0     0   103   101  0.0000000000e+00  0.0000000000e+00 -3.9902056348e+02  3.9902056348e+02  0.0000000000e+00 0. 9.
        6     2     1     2   103     0  6.6570091336e+01  5.8728770834e+01 -1.1066916789e+02  2.2075818018e+02  1.6913268108e+02  3.026827e-14 9.
       -6     2     1     2     0   102 -6.6570091336e+01 -5.8728770834e+01 -1.9363758006e+02  2.7297619882e+02  1.7070397513e+02  1.075563e-13 9.
       24     2     3     0     0     0  3.7692496415e+01  7.6268025580e+01 -7.6294243790e+00  1.1221431951e+02  7.2775747162e+01  1.438918e-13 9.
        5     1     3     0   103     0  2.8877594921e+01 -1.7539254746e+01 -1.0303974352e+02  1.0854386067e+02  4.8000000000e+00 0. 9.
      -24     2     4     0     0     0 -3.8557379925e+01 -4.8341165205e+01 -3.4100541812e+01  1.1059479310e+02  8.5116517250e+01  1.250203e-14 9.
       -5     1     4     0     0   102 -2.8012711411e+01 -1.0387605629e+01 -1.5953703824e+02  1.6238140572e+02  4.8000000000e+00 0. 9.
      -15     1     5     0     0     0  1.7148983362e+01  5.7729331475e+00  2.5777573990e+01  3.1544489179e+01  1.7768200000e+00  1.749511e-02 9.
       16     1     5     0     0     0  2.0543513053e+01  7.0495092433e+01 -3.3406998369e+01  8.0669830331e+01  0.0000000000e+00 0. 9.
        1     1     7     0   104     0 -1.6444595239e+01  1.7709891169e+01 -3.3033613740e+01  4.0931570878e+01  3.3000000000e-01 0. 9.
       -2     1     7     0     0   104 -2.2112784686e+01 -6.6051056375e+01 -1.0669280722e+00  6.9663222221e+01  3.3000000000e-01 0. 9.
#pdf   21   21  1.457136e-02  6.138778e-02  1.910144e+02  6.025989e+00  1.515325e+00
</event>
<event>
    12  9999  1.000000e+00  2.554755e+02  7.909880e-03  1.026857e-01
       21    -1     0     0   101   102  0.0000000000e+00  0.0000000000e+00  1.7561580378e+02  1.7561580378e+02  0.0000000000e+00 0. 9.
       21    -1     0     0   102   103  0.0000000000e+00  0.0000000000e+00 -5.1256505973e+02  5.1256505973e+02  0.0000000000e+00 0. 9.
        6     2     1     2   101     0 -1.7039147595e+02  5.8609541552e+01  8.3947640707e+00  2.6265042986e+02  1.9090951470e+02  8.914966e-15 9.
       -6     2     1     2     0   103  1.7039147595e+02 -5.8609541552e+01 -3.4534402002e+02  4.2553043364e+02  1.7130477037e+02  6.534085e-14 9.
       24     2     3     0     0     0 -1.7405414276e+02  3.0062755382e+01  5.8365593976e+01  2.0478456799e+02  8.5624545859e+01  4.894942e-14 9.
        5     1     3     0   101     0  3.6626668058e+00  2.8546786170e+01 -4.9970829905e+01  5.7865861872e+01  4.8000000000e+00 0. 9.
      -24     2     4     0     0     0  1.0148497062e+02 -5.1009246036e+01 -1.0420177550e+02  1.7457527219e+02  8.1959582711e+01  5.241071e-14 9.
       -5     1     4     0     0   103  6.8906505330e+01 -7.6002955160e+00 -2.4114224452e+02  2.5095516146e+02  4.8000000000e+00 0. 9.
       -3     1     5     0     0   104 -1.3419136410e+02  4.5531417060e+01  7.3236197519e+01  1.5951245332e+02  5.0000000000e-01 0. 9.
        2     1     5     0   104     0 -3.9862778657e+01 -1.5468661678e+01 -1.4870603543e+01  4.5272114663e+01  3.3000000000e-01 0. 9.
       15     1     7     0     0     0  8.5681736271e+01 -6.1283823582e+01 -1.1236594883e+02  1.5403353696e+02  1.7768200000e+00  3.210473e-02 9.
      -16     1     7     0     0     0  1.5803234351e+01  1.0274577546e+01  8.1641733332e+00  2.0541735222e+01  0.0000000000e+00 0. 9.
#pdf   21   21  2.701782e-02  7.885616e-02  2.486235e+02  3.495815e+00  1.094983e+00
</event>
<event>
    12  9999  1.000000e+00  2.567904e+02  7.910345e-03  1.026237e-01
       21    -1     0     0   101   102  0.0000000000e+00  0.0000000000e+00  2.6748261209e+02  2.6748261209e+02  0.0000000000e+00 0. 9.
       21    -1     0     0   103   101  0.0000000000e+00  0.0000000000e+00 -2.5786449348e+02  2.5786449348e+02  0.0000000000e+00 0. 9.
        6     2     1     2   103     0 -6.9437505160e+01  1.7843507104e+02 -5.0266579320e+01  2.6194052371e+02  1.7153852997e+02  2.421831e-13 9.
       -6     2     1     2     0   102  6.9437505160e+01 -1.7843507104e+02  5.9884697937e+01  2.6340658186e+02  1.7069331744e+02  5.088582e-14 9.
       24     2     3     0     0     0 -5.4476805632e+01  3.7500019455e+01  1.1892666884e+01  1.0710731285e+02  8.3406037732e+01  1.479985e-14 9.
        5     1     3     0   103     0 -1.4960699527e+01  1.4093505159e+02 -6.2159246204e+01  1.5483321086e+02  4.8000000000e+00 0. 9.
      -24     2     4     0     0     0  1.1487446531e+00 -1.1138526991e+02  8.7635656984e+01  1.6364593645e+02  8.1804560846e+01  2.768675e-14 9.
       -5     1     4     0     0   102  6.8288760507e+01 -6.7049801136e+01 -2.7750959047e+01  9.9760645407e+01  4.8000000000e+00 0. 9.
       -1     1     5     0     0   104 -2.4181046210e+01 -2.5903116159e+01 -1.9327594777e+00  3.5489982837e+01  3.3000000000e-01 0. 9.
        2     1     5     0   104     0 -3.0295759422e+01  6.3403135615e+01  1.3825426361e+01  7.1617330017e+01  3.3000000000e-01 0. 9.
        3     1     7     0   105     0  1.4307689595e+01 -1.2341626567e+01 -1.2117147323e+01  2.2452193370e+01  5.0000000000e-01 0. 9.
       -4     1     7     0     0   105 -1.3158944942e+01 -9.9043643341e+01  9.9752804306e+01  1.4119374308e+02  1.5000000000e+00 0. 9.
#pdf   21   21  4.115117e-02  3.967146e-02  2.565090e+02  2.304162e+00  2.393402e+00
</event>
<event>
    12  9999  1.000000e+00  2.293259e+02  7.900095e-03  1.040085e-01
       21    -1     0     0   101   102  0.0000000000e+00  0.0000000000e+00  1.3646549693e+02  1.3646549693e+02  0.0000000000e+00 0. 9.
       21    -1     0     0   102   103  0.0000000000e+00  0.0000000000e+00 -3.9338972693e+02  3.9338972693e+02  0.0000000000e+00 0. 9.
        6     2     1     2   101     0  1.1914046647e+02  9.4459612970e+01 -9.1005005988e+01  2.4731823595e+02  1.7253211147e+02  2.437532e-13 9.
       -6     2     1     2     0   103 -1.1914046647e+02 -9.4459612970e+01 -1.6591922401e+02  2.8253698790e+02  1.7082415344e+02  4.204477e-15 9.
       24     2     3     0     0     0  1.3348920015e+02  2.6096116755e+01 -4.8720578844e+01  1.6552296377e+02  8.0769937885e+01  5.531324e-14 9.
        5     1     3     0   101     0 -1.4348733676e+01  6.8363496215e+01 -4.2284427144e+01  8.1795272185e+01  4.8000000000e+00 0. 9.
      -24     2     4     0     0     0 -1.1316575358e+02 -9.2662475100e+01 -1.8885027008e+02  2.5829240556e+02  9.8273700372e+01  3.257819e-13 9.
       -5     1     4     0     0   103 -5.9747128959e+00 -1.7971378701e+00  2.2931046073e+01  2.4244582337e+01  4.8000000000e+00 0. 9.
       -1     1     5     0     0   104  7.7479398150e+00 -6.8215806733e+00 -3.3021806752e+01  3.4599323048e+01  3.3000000000e-01 0. 9.
        2     1     5     0   104     0  1.2574126033e+02  3.2917697428e+01 -1.5698772092e+01  1.3092364072e+02  3.3000000000e-01 0. 9.
        3     1     7     0   105     0 -8.9410647795e+01 -1.3818742767e+01 -7.3544467855e+01  1.1659442672e+02  5.0000000000e-01 0. 9.
       -4     1     7     0     0   105 -2.3755105783e+01 -7.8843732333e+01 -1.1530580223e+02  1.4169797884e+02  1.5000000000e+00 0. 9.
#pdf   21   21  2.099469e-02  6.052150e-02  2.286875e+02  4.408222e+00  1.519791e+00
</event>
<event>
    12  9999  1.000000e+00  2.341186e+02  7.901968e-03  1.037525e-01
       21    -1     0     0   101   102  0.0000000000e+00  0.0000000000e+00  9.8405116560e+01  9.8405116560e+01  0.0000000000e+00 0. 9.
       21    -1     0     0   103   101  0.0000000000e+00  0.0000000000e+00 -5.5904378981e+02  5.5904378981e+02  0.0000000000e+00 0. 9.
        6     2     1     2   103     0  1.4240604702e+02  6.6922350500e+01 -2.1661621858e+02  3.2268411616e+02  1.8012320629e+02  4.766960e-13 9.
       -6     2     1     2     0   102 -1.4240604702e+02 -6.6922350500e+01 -2.4402245466e+02  3.3476479021e+02  1.6662059645e+02  4.773479e-14 9.
       24     2     3     0     0     0  8.1594581939e+01  9.4458213277e+01 -7.3741970648e+01  1.6491102356e+02  7.8598585228e+01  3.627657e-14 9.
        5     1     3     0   103     0  6.0811465077e+01 -2.7535862777e+01 -1.4287424794e+02  1.5777309259e+02  4.8000000000e+00 0. 9.
      -24     2     4     0     0     0 -6.4118647156e+01 -9.7111995253e+01 -1.2290633078e+02  1.8734536445e+02  8.0314250915e+01  3.982604e-14 9.
       -5     1     4     0     0   102 -7.8287399859e+01  3.0189644753e+01 -1.2111612388e+02  1.4741942576e+02  4.8000000000e+00 0. 9.
       -1     1     5     0     0   104  6.9756360074e+01  6.5275219812e+01 -8.8411983167e+01  1.3016755264e+02  3.3000000000e-01 0. 9.
        2     1     5     0   104     0  1.1838221865e+01  2.9182993465e+01  1.4670012520e+01  3.4743470923e+01  3.3000000000e-01 0. 9.
        1     1     7     0   105     0 -6.3285417544e+01 -3.4912109393e+01 -3.6763253506e+01  8.1089735258e+01  3.3000000000e-01 0. 9.
       -2     1     7     0     0   105 -8.3322961254e-01 -6.2199885860e+01 -8.6143077277e+01  1.0625562919e+02  3.3000000000e-01 0. 9.
#pdf   21   21  1.513925e-02  8.600674e-02  2.291735e+02  5.831407e+00  9.866734e-01
</event>
<event>
    12  9999  1.000000e+00  4.583683e+02  7.963268e-03  9.607782e-02
       21    -1     0     0   101   102  0.0000000000e+00  0.0000000000e+00  3.3595429756e+02  3.3595429756e+02  0.0000000000e+00 0. 9.
       21    -1     0     0   102   103  0.0000000000e+00  0.0000000000e+00 -8.4227158073e+02  8.4227158073e+02  0.0000000000e+00 0. 9.
        6     2     1     2   101     0  3.7358260088e+02  2.0397803210e+02  4.5870587517e+01  4.6044561959e+02  1.6951418979e+02  2.326415e-14 9.
       -6     2     1     2     0   103 -3.7358260088e+02 -2.0397803210e+02 -5.5218787069e+02  7.1778025870e+02  1.7066358127e+02  2.527432e-14 9.
       24     2     3     0     0     0  2.9765643078e+02  2.1804165368e+02  1.3084100307e+01  3.7641846623e+02  7.3335901944e+01  6.439950e-14 9.
        5     1     3     0   101     0  7.5926170101e+01 -1.4063621579e+01  3.2786487210e+01  8.4027153360e+01  4.8000000000e+00 0. 9.
      -24     2     4     0     0     0 -3.5251831538e+02 -2.1194459664e+02 -5.5423745947e+02  6.9466292562e+02  7.8662214738e+01  7.953490e-14 9.
       -5     1     4     0     0   103 -2.1064285506e+01  7.9665645385e+00  2.0495887802e+00  2.3117333077e+01  4.8000000000e+00 0. 9.
       -3     1     5     0     0   104  1.9959860251e+01  4.4062086019e+01 -1.4639397199e+00  4.8396865241e+01  5.0000000000e-01 0. 9.
        4     1     5     0   104     0  2.7769657053e+02  1.7397956766e+02  1.4548040027e+01  3.2802160099e+02  1.5000000000e+00 0. 9.
        1     1     7     0   105     0 -1.2046781032e+02 -8.3366662679e+01 -1.3923363567e+02  2.0211038561e+02  3.3000000000e-01 0. 9.
       -2     1     7     0     0   105 -2.3205050505e+02 -1.2857793396e+02 -4.1500382380e+02  4.9255254001e+02  3.3000000000e-01 0. 9.
#pdf   21   21  5.168528e-02  1.295802e-01  4.581551e+02  1.736101e+00  5.079111e-01
</event>
<event>
    12  9999  1.000000e+00  2.061166e+02  7.890451e-03  1.053500e-01
       21    -1     0     0   101   102  0.0000000000e+00  0.0000000000e+00  2.4138878339e+01  2.4138878339e+01  0.0000000000e+00 0. 9.
       21    -1     0     0   103   101  0.0000000000e+00  0.0000000000e+00 -1.7709112624e+03  1.7709112624e+03  0.0000000000e+00 0. 9.
        6     2     1     2   103     0  1.0717297421e+02 -1.0183952476e-01 -9.2617313238e+02  9.4803085782e+02  1.7169676602e+02  2.082962e-14 9.
       -6     2     1     2     0   102 -1.0717297421e+02  1.0183952476e-01 -8.2059925172e+02  8.4701928296e+02  1.8047846688e+02  1.823308e-14 9.
       24     2     3     0     0     0  4.4796693153e+01 -4.3385025408e+01 -2.8660279836e+02  3.0395206855e+02  7.9728864316e+01  1.552792e-13 9.
        5     1     3     0   103     0  6.2376281058e+01  4.3283185884e+01 -6.3957033403e+02  6.4407878927e+02  4.8000000000e+00 0. 9.
      -24     2     4     0     0     0 -8.0116413957e+01  7.0841329615e+01 -5.4241717934e+02  5.5867150976e+02  8.0376150786e+01  1.809562e-13 9.
       -5     1     4     0     0   102 -2.7056560254e+01 -7.0739490090e+01 -2.7818207239e+02  2.8834777320e+02  4.8000000000e+00 0. 9.
       -1     1     5     0     0   104  2.9930247034e+01  1.2609506124e+01 -1.7723879410e+02  1.8019022828e+02  3.3000000000e-01 0. 9.
        2     1     5     0   104     0  1.4866446119e+01 -5.5994531532e+01 -1.0936400425e+02  1.2376184028e+02  3.3000000000e-01 0. 9.
       15     1     7     0     0     0 -4.8907255777e+01  4.7550436622e+01 -1.5566641294e+02  1.6996515201e+02  1.7768200000e+00  1.208793e-01 9.
      -16     1     7     0     0     0 -3.1209158180e+01  2.3290892993e+01 -3.8675076639e+02  3.8870635775e+02  0.0000000000e+00 0. 9.
#pdf   21   21  3.713674e-03  2.724479e-01  2.024002e+02  1.651873e+01  1.325364e-01
</event>
<event>
    12  9999  1.000000e+00  2.614599e+02  7.911981e-03  1.024065e-01
       21    -1     0     0   101   102  0.0000000000e+00  0.0000000000e+00  2.3292028730e+02  2.3292028730e+02  0.0000000000e+00 0. 9.
       21    -1     0     0   103   101  0.0000000000e+00  0.0000000000e+00 -4.2724748540e+02  4.2724748540e+02  0.0000000000e+00 0. 9.
        6     2     1     2   103     0  1.8721725502e+02 -6.2668053749e+01 -2.8191744440e+02  3.8468061411e+02  1.7182591155e+02  1.114395e-13 9.
       -6     2     1     2     0   102 -1.8721725502e+02  6.2668053749e+01  8.7590246306e+01  2.7548715859e+02  1.7100742020e+02  2.290606e-13 9.
       24     2     3     0     0     0  5.1181835245e+01 -2.1554914884e+01 -1.9439555005e+02  2.1771041434e+02  8.0771282145e+01  4.392985e-14 9.
        5     1     3     0   103     0  1.3603541977e+02 -4.1113138865e+01 -8.7521894353e+01  1.6697019977e+02  4.8000000000e+00 0. 9.
      -24     2     4     0     0     0 -1.0302323541e+02 -2.7237228826e+01  1.7359494792e+01  1.3361753100e+02  7.8718732617e+01  5.837263e-15 9.
       -5     1     4     0     0   102 -8.4194019614e+01  8.9905282575e+01  7.0230751514e+01  1.4186962759e+02  4.8000000000e+00 0. 9.
       -1     1     5     0     0   104  9.6720515533e+00 -4.7884406026e+01 -9.5206834643e+01  1.0700894909e+02  3.3000000000e-01 0. 9.
        2     1     5     0   104     0  4.1509783691e+01  2.6329491142e+01 -9.9188715405e+01  1.1070146526e+02  3.3000000000e-01 0. 9.
       13     1     7     0     0     0  6.0155184241e+00 -2.2001699241e+01 -1.4026215944e+00  2.2852565343e+01  1.0566000000e-01  1.521005e+05 9.
      -14     1     7     0     0     0 -1.0903875383e+02 -5.2355295853e+00  1.8762116386e+01  1.1076496566e+02  0.0000000000e+00 0. 9.
#pdf   21   21  3.583389e-02  6.573038e-02  2.611917e+02  2.652156e+00  1.364861e+00
</event>
<event>
    12  9999  1.000000e+00  2.784808e+02  7.917710e-03  1.016537e-01
       21    -1     0     0   101   102  0.0000000000e+00  0.0000000000e+00  2.5099327760e+02  2.5099327760e+02  0.0000000000e+00 0. 9.
       21    -1     0     0   103   101  0.0000000000e+00  0.0000000000e+00 -5.0142109272e+02  5.0142109272e+02  0.0000000000e+00 0. 9.
        6     2     1     2   103     0  1.7999898047e+02 -1.2597777665e+02 -3.5830897158e+02  4.5387026601e+02  1.7129759505e+02  6.986023e-14 9.
       -6     2     1     2     0   102 -1.7999898047e+02  1.2597777665e+02  1.0788115647e+02  2.9854410431e+02  1.7093918542e+02  2.435406e-13 9.
       24     2     3     0     0     0  2.4422467702e+01 -1.4256501634e+01 -1.3051265114e+02  1.5621291565e+02  8.1050713383e+01  4.429645e-14 9.
        5     1     3     0   103     0  1.5557651277e+02 -1.1172127502e+02 -2.2779632044e+02  2.9765735036e+02  4.8000000000e+00 0. 9.
      -24     2     4     0     0     0 -1.7168593750e+02  1.5636907469e+02  1.0394237643e+02  2.6643037409e+02  7.9080831844e+01  8.166781e-14 9.
       -5     1     4     0     0   102 -8.3130429714e+00 -3.0391298039e+01  3.9387800402e+00  3.2113730213e+01  4.8000000000e+00 0. 9.
       -1     1     5     0     0   104  3.5268999597e+01  2.5848286108e+01 -5.7940884912e+01  7.2589884086e+01  3.3000000000e-01 0. 9.
        2     1     5     0   104     0 -1.0846531894e+01 -4.0104787742e+01 -7.2571766232e+01  8.3623031564e+01  3.3000000000e-01 0. 9.
       11     1     7     0     0     0 -1.7549791156e+02  1.3724448866e+02  1.0618477031e+02  2.4680107794e+02  5.1100000000e-04 0. 9.
      -12     1     7     0     0     0  3.8119740538e+00  1.9124586033e+01 -2.2423938754e+00  1.9629296151e+01  0.0000000000e+00 0. 9.
#pdf   21   21  3.861435e-02  7.714171e-02  2.783707e+02  2.450403e+00  1.114742e+00
</event>
<event>
    12  9999  1.000000e+00  2.377127e+02  7.903347e-03  1.035647e-01
       21    -1     0     0   101   102  0.0000000000e+00  0.0000000000e+00  1.9217339878e+02  1.9217339878e+02  0.0000000000e+00 0. 9.
       21    -1     0     0   103   101  0.0000000000e+00  0.0000000000e+00 -3.0366769091e+02  3.0366769091e+02  0.0000000000e+00 0. 9.
        6     2     1     2   103     0  5.4366115736e+01  1.5581966184e+02 -9.9829700047e+01  2.5760839988e+02  1.7076497627e+02  1.040162e-14 9.
       -6     2     1     2     0   102 -5.4366115736e+01 -1.5581966184e+02 -1.1664592087e+01  2.3823268982e+02  1.7141560674e+02  1.246738e-13 9.
       24     2     3     0     0     0  8.1961677700e+01  5.5011673724e+01 -2.6735583963e+01  1.2997785764e+02  8.0221263817e+01  1.238212e-13 9.
        5     1     3     0   103     0 -2.7595561964e+01  1.0080798811e+02 -7.3094116084e+01  1.2763054224e+02  4.8000000000e+00 0. 9.
      -24     2     4     0     0     0  3.5945626157e+01 -7.4920494347e+01 -1.5688953044e+01  1.1682378773e+02  8.0600779271e+01  1.725127e-13 9.
       -5     1     4     0     0   102 -9.0311741893e+01 -8.0899167489e+01  4.0243609570e+00  1.2140890208e+02  4.8000000000e+00 0. 9.
       -1     1     5     0     0   104  4.9794856503e+01  6.3735660390e+01 -4.4388032082e+01  9.2261413557e+01  3.3000000000e-01 0. 9.
        2     1     5     0   104     0  3.2166821197e+01 -8.7239866664e+00  1.7652448119e+01  3.7716444078e+01  3.3000000000e-01 0. 9.
        1     1     7     0   105     0  2.9545104397e+01 -5.2722368419e+01  2.8605782497e+01  6.6865245216e+01  3.3000000000e-01 0. 9.
       -2     1     7     0     0   105  6.4005217600e+00 -2.2198125928e+01 -4.4294735541e+01  4.9958542515e+01  3.3000000000e-01 0. 9.
#pdf   21   21  2.956514e-02  4.671811e-02  2.374787e+02  3.215441e+00  2.023498e+00
</event>
<event>
    12  9999  1.000000e+00  2.088157e+02  7.891626e-03  1.051846e-01
        2    -1     0     0   101     0  0.0000000000e+00  0.0000000000e+00  2.8331219745e+02  2.8331219745e+02  0.0000000000e+00 0. 9.
       -2    -1     0     0     0   102  0.0000000000e+00  0.0000000000e+00 -1.7695330960e+02  1.7695330960e+02  0.0000000000e+00 0. 9.
        6     2     1     2   101     0  9.9759969754e+01 -5.9912921009e+01  1.3675864006e+02  2.5181405773e+02  1.7653833683e+02  7.219813e-17 9.
       -6     2     1     2     0   102 -9.9759969754e+01  5.9912921009e+01 -3.0399752208e+01  2.0845144932e+02  1.7025349372e+02  1.814353e-13 9.
       24     2     3     0     0     0  6.7459570536e+01 -3.0827560574e+01  1.1769754830e+00  1.0935458367e+02  8.0348662405e+01  2.414245e-14 9.
        5     1     3     0   101     0  3.2300399218e+01 -2.9085360435e+01  1.3558166458e+02  1.4245947406e+02  4.8000000000e+00 0. 9.
      -24     2     4     0     0     0  1.8812046507e+00  4.9864634494e+00 -3.9522133679e+01  9.2459631001e+01  8.3416908151e+01  1.085566e-13 9.
       -5     1     4     0     0   102 -1.0164117440e+02  5.4926457560e+01  9.1223814719e+00  1.1599181832e+02  4.8000000000e+00 0. 9.
       -3     1     5     0     0   103  8.6060861365e+01 -2.7754674168e+01  1.4819051986e+00  9.0439149931e+01  5.0000000000e-01 0. 9.
        4     1     5     0   103     0 -1.8601290829e+01 -3.0728864057e+00 -3.0492971558e-01  1.8915433738e+01  1.5000000000e+00 0. 9.
        1     1     7     0   104     0  1.8031045825e+01 -5.1896754475e+00  2.1489970777e+01  2.8530318764e+01  3.3000000000e-01 0. 9.
       -2     1     7     0     0   104 -1.6149841174e+01  1.0176138897e+01 -6.1012104457e+01  6.3929312237e+01  3.3000000000e-01 0. 9.
#pdf    2   -2  4.358649e-02  2.722359e-02  2.062228e+02  6.286723e-01  2.663354e-01
</event>
<event>
    12  9999  1.000000e+00  2.584699e+02  7.910937e-03  1.025450e-01
       21    -1     0     0   101   102  0.0000000000e+00  0.0000000000e+00  2.9922809703e+02  2.9922809703e+02  0.0000000000e+00 0. 9.
       21    -1     0     0   103   101  0.0000000000e+00  0.0000000000e+00 -2.2374824227e+02  2.2374824227e+02  0.0000000000e+00 0. 9.
        6     2     1     2   103     0  1.8860252396e+02 -5.3676440728e+01  2.5885206244e+01  2.6127048058e+02  1.7070485578e+02  6.041063e-14 9.
       -6     2     1     2     0   102 -1.8860252396e+02  5.3676440728e+01  4.9594648521e+01  2.6170585872e+02  1.6606701958e+02  2.490468e-14 9.
       24     2     3     0     0     0  1.4825318544e+02  2.3488747891e+01  2.8559844634e+01  1.7401952560e+02  8.3285066458e+01  2.134429e-14 9.
        5     1     3     0   103     0  4.0349338521e+01 -7.7165188619e+01 -2.6746383899e+00  8.7250954975e+01  4.8000000000e+00 0. 9.
      -24     2     4     0     0     0 -4.7090708703e+01 -3.8372522508e+01  1.6611261508e+01  8.9631603498e+01  6.3780130189e+01  9.212210e-14 9.
       -5     1     4     0     0   102 -1.4151181526e+02  9.2048963236e+01  3.2983387013e+01  1.7207425522e+02  4.8000000000e+00 0. 9.
       -1     1     5     0     0   104  1.9990198139e+01 -1.1034796139e+01  3.4140686214e+01  4.1073958935e+01  3.3000000000e-01 0. 9.
        2     1     5     0   104     0  1.2826298730e+02  3.4523544029e+01 -5.5808415799e+00  1.3294556667e+02  3.3000000000e-01 0. 9.
       11     1     7     0     0     0 -3.6697202829e+01 -1.9391244371e+00  3.2010075106e+01  4.8734893122e+01  5.1100000000e-04 0. 9.
      -12     1     7     0     0     0 -1.0393505873e+01 -3.6433398071e+01 -1.5398813597e+01  4.0896710376e+01  0.0000000000e+00 0. 9.
#pdf   21   21  4.603509e-02  3.442281e-02  2.569637e+02  2.046001e+00  2.762991e+00
</event>
<event>
    12  9999  1.000000e+00  6.371299e+02  7.993663e-03  9.272090e-02
       21    -1     0     0   101   102  0.0000000000e+00  0.0000000000e+00  1.6034409066e+03  1.6034409066e+03  0.0000000000e+00 0. 9.
       21    -1     0     0   102   103  0.0000000000e+00  0.0000000000e+00 -4.4859039736e+02  4.4859039736e+02  0.0000000000e+00 0. 9.
        6     2     1     2   101     0 -5.8590500092e+02  1.8270760758e+02  1.2546171605e+03  1.4071130630e+03  1.7098600143e+02  5.548020e-14 9.
       -6     2     1     2     0   103  5.8590500092e+02 -1.8270760758e+02 -9.9766651280e+01  6.4491824092e+02  1.7117071244e+02  1.725999e-13 9.
       24     2     3     0     0     0 -4.2994683221e+02  1.1490066077e+02  1.0341379420e+03  1.1286263340e+03  7.9370513447e+01  1.083608e-14 9.
        5     1     3     0   101     0 -1.5595816871e+02  6.7806946813e+01  2.2047921846e+02  2.7848672894e+02  4.8000000000e+00 0. 9.
      -24     2     4     0     0     0  3.8667405562e+02 -6.2396084805e+01 -2.3058846968e+01  3.9981630434e+02  7.6884784570e+01  2.043992e-13 9.
       -5     1     4     0     0   103  1.9923094530e+02 -1.2031152277e+02 -7.6707804312e+01  2.4510193659e+02  4.8000000000e+00 0. 9.
       -1     1     5     0     0   104 -1.7926043105e+02  3.3609006845e+01  5.1665987319e+02  5.4790637973e+02  3.3000000000e-01 0. 9.
        2     1     5     0   104     0 -2.5068640116e+02  8.1291653921e+01  5.1747806883e+02  5.8071995432e+02  3.3000000000e-01 0. 9.
       11     1     7     0     0     0  2.9894260208e+02 -8.0269944097e+01 -2.1330902372e+01  3.1026593539e+02  5.1100000000e-04 0. 9.
      -12     1     7     0     0     0  8.7731453541e+01  1.7873859293e+01 -1.7279445957e+00  8.9550368949e+01  0.0000000000e+00 0. 9.
#pdf   21   21  2.466832e-01  6.901391e-02  6.371051e+02  1.353217e-01  1.198969e+00
</event>
<event>
    12  9999  1.000000e+00  2.084427e+02  7.891464e-03  1.052073e-01
       21    -1     0     0   101   102  0.0000000000e+00  0.0000000000e+00  5.3009696216e+02  5.3009696216e+02  0.0000000000e+00 0. 9.
       21    -1     0     0   103   101  0.0000000000e+00  0.0000000000e+00 -8.2347696208e+01  8.2347696208e+01  0.0000000000e+00 0. 9.
        6     2     1     2   103     0 -5.0770672699e+01  1.0478033370e+02  2.4696113020e+02  3.2464346498e+02  1.7563314035e+02  1.519610e-13 9.
       -6     2     1     2     0   102  5.0770672699e+01 -1.0478033370e+02  2.0078813575e+02  2.8780119338e+02  1.7016777580e+02  4.479340e-13 9.
       24     2     3     0     0     0 -3.3534179888e+01  2.9528827423e+01  3.4026055718e+01  9.8094856894e+01  8.0425963541e+01  5.543177e-15 9.
        5     1     3     0   103     0 -1.7236492811e+01  7.5251506272e+01  2.1293507448e+02  2.2654860809e+02  4.8000000000e+00 0. 9.
      -24     2     4     0     0     0  3.5942407322e+01 -4.9447579258e+01  1.5512242914e+01  9.3812050304e+01  6.9448911896e+01  4.804212e-14 9.
       -5     1     4     0     0   102  1.4828265377e+01 -5.5332754437e+01  1.8527589283e+02  1.9398914308e+02  4.8000000000e+00 0. 9.
      -11     1     5     0     0     0  2.4839709528e+01 -3.1705639463e+00  7.7704461678e+00  2.6219143371e+01  5.1100000000e-04 0. 9.
       12     1     5     0     0     0 -5.8373889416e+01  3.2699391370e+01  2.6255609550e+01  7.1875713523e+01  0.0000000000e+00 0. 9.
        3     1     7     0   104     0  2.9374460540e+01 -6.3356430673e+01 -2.7468185719e+00  6.9890566258e+01  5.0000000000e-01 0. 9.
       -4     1     7     0     0   104  6.5679467816e+00  1.3908851415e+01  1.8259061486e+01  2.3921484046e+01  1.5000000000e+00 0. 9.
#pdf   21   21  8.155338e-02  1.266888e-02  2.061884e+02  1.067235e+00  6.746042e+00
</event>
<event>
    12  9999  1.000000e+00  2.483801e+02  7.907325e-03  1.030274e-01
       21    -1     0     0   101   102  0.0000000000e+00  0.0000000000e+00  9.9704318596e+02  9.9704318596e+02  0.0000000000e+00 0. 9.
       21    -1     0     0   102   103  0.0000000000e+00  0.0000000000e+00 -6.5008678363e+01  6.5008678363e+01  0.0000000000e+00 0. 9.
        6     2     1     2   101     0 -3.8864304254e+01  1.7586990083e+02  5.8250843263e+02  6.3323366990e+02  1.7096242408e+02  5.598368e-14 9.
       -6     2     1     2     0   103  3.8864304254e+01 -1.7586990083e+02  3.4952607497e+02  4.2881819443e+02  1.7110204740e+02  2.852261e-13 9.
       24     2     3     0     0     0  2.3995028180e+00  2.7806446099e+01  1.3615859320e+02  1.6113547295e+02  8.1526204888e+01  7.814336e-14 9.
        5     1     3     0   101     0 -4.1263807072e+01  1.4806345473e+02  4.4634983943e+02  4.7209819694e+02  4.8000000000e+00 0. 9.
      -24     2     4     0     0     0  6.8028654445e+01 -5.2288605488e+01  1.3903974351e+02  1.8295149963e+02  8.2323780595e+01  4.131254e-14 9.
       -5     1     4     0     0   103 -2.9164350190e+01 -1.2358129534e+02  2.1048633146e+02  2.4586669480e+02  4.8000000000e+00 0. 9.
       -3     1     5     0     0   104 -3.3948778872e+01  3.3832052742e+01  9.0843166510e+01  1.0271250304e+02  5.0000000000e-01 0. 9.
        4     1     5     0   104     0  3.6348281690e+01 -6.0256066432e+00  4.5315426692e+01  5.8422969913e+01  1.5000000000e+00 0. 9.
       15     1     7     0     0     0  3.7858223663e+01  6.9618629566e+00  9.6778058552e+01  1.0416747257e+02  1.7768200000e+00  4.101905e-02 9.
      -16     1     7     0     0     0  3.0170430782e+01 -5.9250468445e+01  4.2261684960e+01  7.8784027063e+01  0.0000000000e+00 0. 9.
#pdf   21   21  1.533913e-01  1.000134e-02  2.483320e+02  4.169374e-01  8.131040e+00
</event>
<event>
    12  9999  1.000000e+00  5.343834e+02  7.977402e-03  9.448352e-02
        1    -1     0     0   101     0  0.0000000000e+00  0.0000000000e+00  9.0569525829e+02  9.0569525829e+02  0.0000000000e+00 0. 9.
       -1    -1     0     0     0   102  0.0000000000e+00  0.0000000000e+00 -3.3207875788e+02  3.3207875788e+02  0.0000000000e+00 0. 9.
        6     2     1     2   101     0 -4.8777963330e+02 -1.3382041348e+02  1.4793578422e+02  5.5493836360e+02  1.7388133142e+02  3.793978e-13 9.
       -6     2     1     2     0   102  4.8777963330e+02  1.3382041348e+02  4.2568071619e+02  6.8283565257e+02  1.7094906422e+02  1.515909e-13 9.
       24     2     3     0     0     0 -3.2270740800e+02 -5.1831884272e+01  3.3774203322e+01  3.3808157897e+02  7.9572871155e+01  5.550441e-14 9.
        5     1     3     0   101     0 -1.6507222530e+02 -8.1988529204e+01  1.1416158090e+02  2.1685678463e+02  4.8000000000e+00 0. 9.
      -24     2     4     0     0     0  3.9048372543e+02  1.2422222631e+02  2.6564524532e+02  4.9523764932e+02  8.2366447118e+01  4.017276e-14 9.
       -5     1     4     0     0   102  9.7295907872e+01  9.5981871687e+00  1.6003547088e+02  1.8759800325e+02  4.8000000000e+00 0. 9.
       -3     1     5     0     0   103 -6.7680466541e+01  1.5464845481e+00 -2.2831357718e+01  7.1446189968e+01  5.0000000000e-01 0. 9.
        4     1     5     0   103     0 -2.5502694146e+02 -5.3378368820e+01  5.6605561041e+01  2.6663538900e+02  1.5000000000e+00 0. 9.
        3     1     7     0   104     0  3.1206972132e+02  7.0101651112e+01  2.2794924555e+02  3.9276311054e+02  5.0000000000e-01 0. 9.
       -4     1     7     0     0   104  7.8414004106e+01  5.4120575195e+01  3.7695999764e+01  1.0247453878e+02  1.5000000000e+00 0. 9.
#pdf    1   -1  1.393377e-01  5.108904e-02  5.339105e+02  2.798294e-01  1.841877e-01
</event>
<event>
    12  9999  1.000000e+00  1.751588e+02  7.875786e-03  1.074651e-01
       21    -1     0     0   101   102  0.0000000000e+00  0.0000000000e+00  5.4937247620e+01  5.4937247620e+01  0.0000000000e+00 0. 9.
       21    -1     0     0   103   101  0.0000000000e+00  0.0000000000e+00 -8.1101807905e+02  8.1101807905e+02  0.0000000000e+00 0. 9.
        6     2     1     2   103     0  1.4549451068e+00 -4.2843892969e+01 -6.1835697168e+02  6.4245095549e+02  1.6893836085e+02  3.638057e-14 9.
       -6     2     1     2     0   102 -1.4549451068e+00  4.2843892969e+01 -1.3772385976e+02  2.2350437118e+02  1.7072968799e+02  1.036875e-13 9.
       24     2     3     0     0     0  3.6465242411e+01 -2.1478907496e+01 -1.6979323264e+02  1.9199046722e+02  7.8990760728e+01  1.460321e-13 9.
        5     1     3     0   103     0 -3.5010297305e+01 -2.1364985474e+01 -4.4856373903e+02  4.5046048828e+02  4.8000000000e+00 0. 9.
      -24     2     4     0     0     0  4.1701331771e+01 -1.8828508932e+01 -1.1308837662e+02  1.4415768618e+02  7.6804581503e+01  2.619850e-14 9.
       -5     1     4     0     0   102 -4.3156276878e+01  6.1672401902e+01 -2.4635483141e+01  7.9346684996e+01  4.8000000000e+00 0. 9.
      -15     1     5     0     0     0 -2.3001532385e+01 -1.4372726520e+01 -3.3649604139e+01  4.3256198488e+01  1.7768200000e+00  6.101733e-02 9.
       16     1     5     0     0     0  5.9466774796e+01 -7.1061809761e+00 -1.3614362850e+02  1.4873426873e+02  0.0000000000e+00 0. 9.
        3     1     7     0   104     0  5.5387227506e+00 -3.7083845418e+01 -1.9716555098e+01  4.2366042837e+01  5.0000000000e-01 0. 9.
       -4     1     7     0     0   104  3.6162609020e+01  1.8255336486e+01 -9.3371821519e+01  1.0179164335e+02  1.5000000000e+00 0. 9.
#pdf   21   21  8.451884e-03  1.247720e-01  1.742925e+02  9.196046e+00  6.053516e-01
</event>
<event>
    12  9999  1.000000e+00  1.955417e+02  7.885699e-03  1.060252e-01
       21    -1     0     0   101   102  0.0000000000e+00  0.0000000000e+00  1.0966461821e+03  1.0966461821e+03  0.0000000000e+00 0. 9.
       21    -1     0     0   102   103  0.0000000000e+00  0.0000000000e+00 -3.5658929369e+01  3.5658929369e+01  0.0000000000e+00 0. 9.
        6     2     1     2   101     0  9.0424739276e+01  2.8978421147e+01  6.1590438039e+02  6.4631879791e+02  1.7138669838e+02  3.073235e-13 9.
       -6     2     1     2     0   103 -9.0424739276e+01 -2.8978421147e+01  4.4508287231e+02  4.8598631353e+02  1.7049208588e+02  6.666547e-14 9.
       24     2     3     0     0     0  2.8165344842e+01  5.1713454952e+01  5.2101133171e+02  5.3047042871e+02  8.0489129073e+01  1.684028e-13 9.
        5     1     3     0   101     0  6.2259394434e+01 -2.2735033804e+01  9.4893048685e+01  1.1584836920e+02  4.8000000000e+00 0. 9.
      -24     2     4     0     0     0 -6.2900140089e+01 -4.4009546480e+01  4.3975531511e+02  4.5381550137e+02  8.1673155428e+01  3.950093e-14 9.
       -5     1     4     0     0   103 -2.7524599187e+01  1.5031125333e+01  5.3275572074e+00  3.2170812159e+01  4.8000000000e+00 0. 9.
       -3     1     5     0     0   104  3.1164103035e+01  4.8009367855e+00  6.7236102217e+01  7.4264350488e+01  5.0000000000e-01 0. 9.
        4     1     5     0   104     0 -2.9987581926e+00  4.6912518166e+01  4.5377522949e+02  4.5620607822e+02  1.5000000000e+00 0. 9.
        1     1     7     0   105     0 -4.5932324931e+01  1.0944887469e+00  3.3932334692e+02  3.4241994545e+02  3.3000000000e-01 0. 9.
       -2     1     7     0     0   105 -1.6967815158e+01 -4.5104035227e+01  1.0043196819e+02  1.1139555593e+02  3.3000000000e-01 0. 9.
#pdf   21   21  1.687148e-01  5.485989e-03  1.951511e+02  3.669185e-01  1.261080e+01
</event>
<event>
    12  9999  1.000000e+00  1.843001e+02  7.880364e-03  1.067948e-01
       21    -1     0     0   101   102  0.0000000000e+00  0.0000000000e+00  7.3426100022e+02  7.3426100022e+02  0.0000000000e+00 0. 9.
       21    -1     0     0   102   103  0.0000000000e+00  0.0000000000e+00 -7.7740414994e+01  7.7740414994e+01  0.0000000000e+00 0. 9.
        6     2     1     2   101     0 -4.9529313395e+01 -3.7290271157e+01  5.8361439142e+02  6.1119801513e+02  1.7062689887e+02  1.318701e-13 9.
       -6     2     1     2     0   103  4.9529313395e+01  3.7290271157e+01  7.2906193806e+01  2.0080340008e+02  1.7653038034e+02  1.813606e-14 9.
       24     2     3     0     0     0 -5.6677412603e+01 -7.4712853594e+01  2.9302286003e+02  3.1808025191e+02  8.0736054925e+01  1.942319e-13 9.
        5     1     3     0   101     0  7.1480992080e+00  3.7422582438e+01  2.9059153139e+02  2.9311776322e+02  4.8000000000e+00 0. 9.
      -24     2     4     0     0     0  4.3332617692e+01  6.0109522430e+01  1.1472653491e+02  1.5252195234e+02  6.7896227365e+01  6.826586e-14 9.
       -5     1     4     0     0   103  6.1966957029e+00 -2.2819251273e+01 -4.1820341102e+01  4.8281447744e+01  4.8000000000e+00 0. 9.
       -3     1     5     0     0   104  1.3193188038e+01 -4.6546282143e+01  1.1679788452e+02  1.2642235728e+02  5.0000000000e-01 0. 9.
        4     1     5     0   104     0 -6.9870600641e+01 -2.8166571451e+01  1.7622497551e+02  1.9165789463e+02  1.5000000000e+00 0. 9.
        3     1     7     0   105     0  2.6151513547e+01  4.0552126908e+01  1.6664455594e+01  5.1052235385e+01  5.0000000000e-01 0. 9.
       -4     1     7     0     0   105  1.7181104145e+01  1.9557395522e+01  9.8062079315e+01  1.0146971695e+02  1.5000000000e+00 0. 9.
#pdf   21   21  1.129632e-01  1.196006e-02  1.815413e+02  6.966735e-01  7.057955e+00
</event>
<event>
    12  9999  1.000000e+00  1.821035e+02  7.879285e-03  1.069520e-01
       21    -1     0     0   101   102  0.0000000000e+00  0.0000000000e+00  7.9448563705e+01  7.9448563705e+01  0.0000000000e+00 0. 9.
       21    -1     0     0   102   103  0.0000000000e+00  0.0000000000e+00 -4.3174986358e+02  4.3174986358e+02  0.0000000000e+00 0. 9.
        6     2     1     2   101     0  6.3919282344e+01  1.5319452885e+01 -2.2216250844e+02  2.8686660732e+02  1.6916237746e+02  1.109745e-13 9.
       -6     2     1     2     0   103 -6.3919282344e+01 -1.5319452885e+01 -1.3013879143e+02  2.2433181996e+02  1.7049428178e+02  8.911365e-14 9.
       24     2     3     0     0     0 -2.0872564199e+01  3.0227961004e+01 -1.4730633522e+02  1.7268076090e+02  8.2280588386e+01  4.059631e-14 9.
        5     1     3     0   101     0  8.4791846543e+01 -1.4908508120e+01 -7.4856173215e+01  1.1418584642e+02  4.8000000000e+00 0. 9.
      -24     2     4     0     0     0 -1.5408655708e+01 -4.7310554901e+01 -1.3624685911e+02  1.6570537545e+02  8.0120843494e+01  2.274322e-15 9.
       -5     1     4     0     0   103 -4.8510626636e+01  3.1991102016e+01  6.1080676732e+00  5.8626444507e+01  4.8000000000e+00 0. 9.
      -13     1     5     0     0     0 -9.8900480912e+00 -2.2413142622e+01 -9.3320256529e+01  9.6482347899e+01  1.0566000000e-01  1.953338e+06 9.
       14     1     5     0     0     0 -1.0982516108e+01  5.2641103626e+01 -5.3986078694e+01  7.6198413001e+01  0.0000000000e+00 0. 9.
        3     1     7     0   104     0  1.5025476084e+01  1.2416129439e+01 -8.1732190233e+00  2.1141823739e+01  5.0000000000e-01 0. 9.
       -4     1     7     0     0   104 -3.0434131792e+01 -5.9726684340e+01 -1.2807364008e+02  1.4456355172e+02  1.5000000000e+00 0. 9.
#pdf   21   21  1.222286e-02  6.642306e-02  1.814835e+02  6.938164e+00  1.387305e+00
</event>
<event>
    12  9999  1.000000e+00  3.662659e+02  7.942696e-03  9.850910e-02
       21    -1     0     0   101   102  0.0000000000e+00  0.0000000000e+00  2.0941189826e+02  2.0941189826e+02  0.0000000000e+00 0. 9.
       21    -1     0     0   103   101  0.0000000000e+00  0.0000000000e+00 -1.1056234243e+03  1.1056234243e+03  0.0000000000e+00 0. 9.
        6     2     1     2   103     0 -3.2341373328e+02 -1.4853731358e+01 -8.7446274007e+02  9.4803494514e+02  1.7107921332e+02  7.053552e-14 9.
       -6     2     1     2     0   102  3.2341373328e+02  1.4853731358e+01 -2.1748785964e+01  3.6700037742e+02  1.7146192327e+02  1.289617e-13 9.
       24     2     3     0     0     0 -2.7064305039e+02  2.5840229374e+01 -5.7106440030e+02  6.3736738007e+02  7.8786100976e+01  1.127202e-13 9.
        5     1     3     0   103     0 -5.2770682886e+01 -4.0693960732e+01 -3.0339833977e+02  3.1066756507e+02  4.8000000000e+00 0. 9.
      -24     2     4     0     0     0  5.7010389386e+01  3.8709503985e+00 -9.8095874922e+00  1.0006040744e+02  8.1551752744e+01  3.395405e-15 9.
       -5     1     4     0     0   102  2.6640334389e+02  1.0982780959e+01 -1.1939198472e+01  2.6693996998e+02  4.8000000000e+00 0. 9.
       -1     1     5     0     0   104 -1.5051612448e+02  5.2796326716e+01 -3.0462814615e+02  3.4386185042e+02  3.3000000000e-01 0. 9.
        2     1     5     0   104     0 -1.2012692591e+02 -2.6956097342e+01 -2.6643625415e+02  2.9350552965e+02  3.3000000000e-01 0. 9.
        1     1     7     0   105     0  5.3642891913e+01 -1.5680252466e-01  2.8941918627e+01  6.0953490414e+01  3.3000000000e-01 0. 9.
       -2     1     7     0     0   105  3.3674974733e+00  4.0277529232e+00 -3.8751506119e+01  3.9106917027e+01  3.3000000000e-01 0. 9.
#pdf   21   21  3.221722e-02  1.700959e-01  3.661764e+02  2.904660e+00  3.289708e-01
</event>
<event>
    12  9999  1.000000e+00  1.955541e+02  7.885705e-03  1.060244e-01
       21    -1     0     0   101   102  0.0000000000e+00  0.0000000000e+00  2.7027184891e+02  2.7027184891e+02  0.0000000000e+00 0. 9.
       21    -1     0     0   102   103  0.0000000000e+00  0.0000000000e+00 -2.1324341863e+02  2.1324341863e+02  0.0000000000e+00 0. 9.
        6     2     1     2   101     0  9.2883769599e+01 -1.5151539743e+01  1.6874264246e+02  2.5824216826e+02  1.7134168865e+02  2.530208e-13 9.
       -6     2     1     2     0   103 -9.2883769599e+01  1.5151539743e+01 -1.1171421218e+02  2.2527309928e+02  1.7149618143e+02  3.752495e-14 9.
       24     2     3     0     0     0  8.8410750021e+01  1.8813874130e+01  1.8417469928e+02  2.2036281212e+02  8.0430258811e+01  9.096033e-15 9.
        5     1     3     0   101     0  4.4730195777e+00 -3.3965413873e+01 -1.5432056818e+01  3.7879356137e+01  4.8000000000e+00 0. 9.
      -24     2     4     0     0     0 -5.8539970514e+01 -2.1875779116e+01  6.5670229522e-01  1.0198165068e+02  8.0587517388e+01  2.091923e-13 9.
       -5     1     4     0     0   103 -3.4343799085e+01  3.7027318859e+01 -1.1237091447e+02  1.2329144860e+02  4.8000000000e+00 0. 9.
       -3     1     5     0     0   104  2.7944838769e+01 -1.3134790862e+01  8.7866552118e+00  3.2107507761e+01  5.0000000000e-01 0. 9.
        4     1     5     0   104     0  6.0465911252e+01  3.1948664992e+01  1.7538804406e+02  1.8825530436e+02  1.5000000000e+00 0. 9.
        3     1     7     0   105     0  3.0268597069e+00  2.2384925581e+01 -1.1204078198e+01  2.5219598356e+01  5.0000000000e-01 0. 9.
       -4     1     7     0     0   105 -6.1566830221e+01 -4.4260704698e+01  1.1860780494e+01  7.6762052329e+01  1.5000000000e+00 0. 9.
#pdf   21   21  4.158028e-02  3.280668e-02  1.954864e+02  2.313802e+00  2.932415e+00
</event>
<event>
    12  9999  1.000000e+00  2.243648e+02  7.898117e-03  1.042807e-01
       21    -1     0     0   101   102  0.0000000000e+00  0.0000000000e+00  1.2893593438e+03  1.2893593438e+03  0.0000000000e+00 0. 9.
       21    -1     0     0   103   101  0.0000000000e+00  0.0000000000e+00 -3.9729135961e+01  3.9729135961e+01  0.0000000000e+00 0. 9.
        6     2     1     2   103     0 -5.3510274402e+01 -1.3555467969e+02  7.1353705164e+02  7.4812954621e+02  1.7124331577e+02  5.267487e-14 9.
       -6     2     1     2     0   102  5.3510274402e+01  1.3555467969e+02  5.3609315617e+02  5.8095893353e+02  1.6993819375e+02  6.557626e-14 9.
       24     2     3     0     0     0 -1.8786025658e+00 -3.1225449310e+01  1.5396554417e+02  1.7655826472e+02  8.0553548762e+01  3.925149e-13 9.
        5     1     3     0   103     0 -5.1631671837e+01 -1.0432923038e+02  5.5957150748e+02  5.7157128149e+02  4.8000000000e+00 0. 9.
      -24     2     4     0     0     0 -6.3028861373e+00  7.5740241267e+01  4.3631424216e+02  4.5006106151e+02  8.0053298819e+01  5.241251e-15 9.
       -5     1     4     0     0   102  5.9813160540e+01  5.9814438421e+01  9.9778914010e+01  1.3089787202e+02  4.8000000000e+00 0. 9.
      -13     1     5     0     0     0 -2.3775207966e+01 -1.8528371717e+01  1.4734307412e+02  1.5039465990e+02  1.0566000000e-01  1.998599e+06 9.
       14     1     5     0     0     0  2.1896605400e+01 -1.2697077593e+01  6.6224700457e+00  2.6163604816e+01  0.0000000000e+00 0. 9.
        3     1     7     0   104     0  3.1345707377e+01  5.9545103663e+01  3.1164465603e+02  3.1882724848e+02  5.0000000000e-01 0. 9.
       -2     1     7     0     0   104 -3.7648593515e+01  1.6195137604e+01  1.2466958613e+02  1.3123381303e+02  3.3000000000e-01 0. 9.
#pdf   21   21  1.983630e-01  6.112175e-03  2.238692e+02  2.658600e-01  1.172621e+01
</event>
<event>
    12  9999  1.000000e+00  1.823827e+02  7.879423e-03  1.069319e-01
       21    -1     0     0   101   102  0.0000000000e+00  0.0000000000e+00  4.2752944221e+02  4.2752944221e+02  0.0000000000e+00 0. 9.
       21    -1     0     0   103   101  0.0000000000e+00  0.0000000000e+00 -1.7289640011e+02  1.7289640011e+02  0.0000000000e+00 0. 9.
        6     2     1     2   103     0 -3.8798256650e+01 -4.8473820008e+01 -9.5074727072e+01  2.0638190766e+02  1.7233476763e+02  2.807263e-13 9.
       -6     2     1     2     0   102  3.8798256650e+01  4.8473820008e+01  3.4970776917e+02  3.9404393466e+02  1.7064607430e+02  3.645259e-13 9.
       24     2     3     0     0     0  3.8062975115e+01 -1.5329872252e+01 -2.7297602184e+01  9.8572126658e+01  8.5366914030e+01  2.621314e-13 9.
        5     1     3     0   103     0 -7.6861231765e+01 -3.3143947756e+01 -6.7777124888e+01  1.0780978100e+02  4.8000000000e+00 0. 9.
      -24     2     4     0     0     0 -3.7537792309e+01  4.8436934575e+00  1.4678141097e+02  1.7283605241e+02  8.3035963229e+01  2.481604e-14 9.
       -5     1     4     0     0   102  7.6336048959e+01  4.3630126551e+01  2.0292635821e+02  2.2120788225e+02  4.8000000000e+00 0. 9.
       -1     1     5     0     0   104  2.8446782004e+00  3.1060869099e+01  5.5804652569e+00  3.1687856913e+01  3.3000000000e-01 0. 9.
        2     1     5     0   104     0  3.5218296915e+01 -4.6390741351e+01 -3.2878067441e+01  6.6884269745e+01  3.3000000000e-01 0. 9.
        1     1     7     0   105     0 -4.8008587548e+01  3.4372885825e+01  1.0685138848e+02  1.2208049754e+02  3.3000000000e-01 0. 9.
       -2     1     7     0     0   105  1.0470795239e+01 -2.9529192368e+01  3.9930022484e+01  5.0755554872e+01  3.3000000000e-01 0. 9.
#pdf   21   21  6.577376e-02  2.659945e-02  1.815905e+02  1.403407e+00  3.584081e+00
</event>
<event>
    12  9999  1.000000e+00  1.757271e+02  7.876077e-03  1.074222e-01
       21    -1     0     0   101   102  0.0000000000e+00  0.0000000000e+00  3.4591923458e+02  3.4591923458e+02  0.0000000000e+00 0. 9.
       21    -1     0     0   103   101  0.0000000000e+00  0.0000000000e+00 -1.0833595026e+02  1.0833595026e+02  0.0000000000e+00 0. 9.
        6     2     1     2   103     0  3.6145091069e+01  1.8064157880e+01  2.1408340972e+02  2.7697793118e+02  1.7103299867e+02  6.278513e-13 9.
       -6     2     1     2     0   102 -3.6145091069e+01 -1.8064157880e+01  2.3499874600e+01  1.7727725366e+02  1.7100350625e+02  4.729573e-14 9.
       24     2     3     0     0     0 -9.9824561493e-01  2.6270459452e+01  2.2257432588e+02  2.3770826728e+02  7.9213359102e+01  1.387380e-14 9.
        5     1     3     0   103     0  3.7143336684e+01 -8.2063015715e+00 -8.4909161573e+00  3.9269663898e+01  4.8000000000e+00 0. 9.
      -24     2     4     0     0     0 -3.9275937753e+01 -5.0158124528e+01 -3.6775617639e+01  1.0874988788e+02  8.0097785975e+01  3.188891e-13 9.
       -5     1     4     0     0   102  3.1308466842e+00  3.2093966648e+01  6.0275492238e+01  6.8527365780e+01  4.8000000000e+00 0. 9.
       -3     1     5     0     0   104 -3.0910591267e+01  3.8316884251e+01  1.5835296012e+02  1.6582990758e+02  5.0000000000e-01 0. 9.
        4     1     5     0   104     0  2.9912345652e+01 -1.2046424799e+01  6.4221365759e+01  7.1878359697e+01  1.5000000000e+00 0. 9.
        3     1     7     0   105     0 -5.8318270572e+01 -2.8563268948e+01 -3.9477801527e+00  6.5059326646e+01  5.0000000000e-01 0. 9.
       -4     1     7     0     0   105  1.9042332819e+01 -2.1594855580e+01 -3.2827837486e+01  4.3690561231e+01  1.5000000000e+00 0. 9.
#pdf   21   21  5.321834e-02  1.666707e-02  1.757128e+02  1.789972e+00  5.395973e+00
</event>
<event>
    12  9999  1.000000e+00  1.856101e+02  7.881002e-03  1.067021e-01
       21    -1     0     0   101   102  0.0000000000e+00  0.0000000000e+00  1.0964694404e+02  1.0964694404e+02  0.0000000000e+00 0. 9.
       21    -1     0     0   103   101  0.0000000000e+00  0.0000000000e+00 -6.8166499397e+02  6.8166499397e+02  0.0000000000e+00 0. 9.
        6     2     1     2   103     0  1.3292817311e+01  7.1024389981e+01 -5.7666092024e+02  6.0586359959e+02  1.7120666286e+02  3.587476e-13 9.
       -6     2     1     2     0   102 -1.3292817311e+01 -7.1024389981e+01  4.6428703128e+00  1.8544833842e+02  1.7072892846e+02  2.657173e-15 9.
       24     2     3     0     0     0 -2.9687260486e+01  1.0236175466e+02 -4.2768043248e+02  4.4759944305e+02  7.7945152751e+01  8.216978e-14 9.
        5     1     3     0   103     0  4.2980077797e+01 -3.1337364676e+01 -1.4898048776e+02  1.5826415654e+02  4.8000000000e+00 0. 9.
      -24     2     4     0     0     0  2.6950949667e+01 -1.0332631430e+02 -3.0613083011e+00  1.3305206505e+02  7.9314560395e+01  2.386318e-13 9.
       -5     1     4     0     0   102 -4.0243766978e+01  3.2301924317e+01  7.7041786139e+00  5.2396273372e+01  4.8000000000e+00 0. 9.
       -1     1     5     0     0   104 -2.1503464554e+01  5.9510686404e+01 -3.6949998996e+02  3.7487901016e+02  3.3000000000e-01 0. 9.
        2     1     5     0   104     0 -8.1837959325e+00  4.2851068254e+01 -5.8180442526e+01  7.2720432884e+01  3.3000000000e-01 0. 9.
        3     1     7     0   105     0  3.0989166238e+01 -5.1132218196e+01 -3.7308417077e+01  7.0476947625e+01  5.0000000000e-01 0. 9.
       -4     1     7     0     0   105 -4.0382165709e+00 -5.2194096103e+01  3.4247108776e+01  6.2575117424e+01  1.5000000000e+00 0. 9.
#pdf   21   21  1.686876e-02  1.048715e-01  1.853902e+02  5.340129e+00  7.719604e-01
</event>
<event>
    12  9999  1.000000e+00  2.531087e+02  7.909035e-03  1.027984e-01
       21    -1     0     0   101   102  0.0000000000e+00  0.0000000000e+00  1.0856246707e+03  1.0856246707e+03  0.0000000000e+00 0. 9.
       21    -1     0     0   103   101  0.0000000000e+00  0.0000000000e+00 -1.0316385053e+02  1.0316385053e+02  0.0000000000e+00 0. 9.
        6     2     1     2   103     0  1.1498594302e+02  1.5420114280e+02  9.9026547118e+01  2.6895696256e+02  1.5978683032e+02  1.645472e-13 9.
       -6     2     1     2     0   102 -1.1498594302e+02 -1.5420114280e+02  8.8343427307e+02  9.1983155869e+02  1.6921649449e+02  2.645895e-13 9.
       24     2     3     0     0     0  2.7301307868e+01  4.3170066052e+01 -2.4482158480e+00  9.4782731503e+01  7.9804488697e+01  1.693985e-13 9.
        5     1     3     0   103     0  8.7684635150e+01  1.1103107675e+02  1.0147476297e+02  1.7417423106e+02  4.8000000000e+00 0. 9.
      -24     2     4     0     0     0 -9.6618826478e+01 -1.6404867996e+02  8.0928740597e+02  8.4266211618e+02  1.3742696078e+02  9.153972e-14 9.
       -5     1     4     0     0   102 -1.8367116540e+01  9.8475371616e+00  7.4146867096e+01  7.7169442516e+01  4.8000000000e+00 0. 9.
      -15     1     5     0     0     0 -2.4396925807e+01 -1.0332519953e+00 -9.7902121738e+00  2.6368218412e+01  1.7768200000e+00  7.443948e-02 9.
       16     1     5     0     0     0  5.1698233675e+01  4.4203318047e+01  7.3419963259e+00  6.8414513091e+01  0.0000000000e+00 0. 9.
        1     1     7     0   104     0 -1.2088531608e+02 -1.4391501479e+02  5.4495310687e+02  5.7645363102e+02  3.3000000000e-01 0. 9.
       -2     1     7     0     0   104  2.4266489597e+01 -2.0133665175e+01  2.6433429910e+02  2.6620848516e+02  3.3000000000e-01 0. 9.
#pdf   21   21  1.670192e-01  1.587136e-02  2.500632e+02  3.596821e-01  5.600659e+00
</event>
<event>
    12  9999  1.000000e+00  1.728417e+02  7.874589e-03  1.076420e-01
       21    -1     0     0   101   102  0.0000000000e+00  0.0000000000e+00  1.0498339727e+03  1.0498339727e+03  0.0000000000e+00 0. 9.
       21    -1     0     0   102   103  0.0000000000e+00  0.0000000000e+00 -3.0721805398e+01  3.0721805398e+01  0.0000000000e+00 0. 9.
        6     2     1     2   101     0 -1.3991578630e+01  1.7341161875e+01  6.5658368580e+02  6.7898121429e+02  1.7151347683e+02  5.060955e-13 9.
       -6     2     1     2     0   103  1.3991578630e+01 -1.7341161875e+01  3.6252848149e+02  4.0157456379e+02  1.7128558091e+02  1.600438e-13 9.
       24     2     3     0     0     0  2.7673067370e+01 -3.5716939373e+01  2.4265907358e+02  2.5956766010e+02  8.0314667186e+01  5.156813e-15 9.
        5     1     3     0   101     0 -4.1664646000e+01  5.3058101247e+01  4.1392461222e+02  4.1941355419e+02  4.8000000000e+00 0. 9.
      -24     2     4     0     0     0  1.9343164276e+01  2.1776518552e+01  8.5977528043e+01  1.2217824627e+02  8.1774163218e+01  2.499181e-14 9.
       -5     1     4     0     0   103 -5.3515856461e+00 -3.9117680426e+01  2.7655095344e+02  2.7939631752e+02  4.8000000000e+00 0. 9.
      -15     1     5     0     0     0  6.1411354329e+00 -1.0349912678e+00  2.0147762891e+02  2.0158168764e+02  1.7768200000e+00  1.480099e-01 9.
       16     1     5     0     0     0  2.1531931937e+01 -3.4681948105e+01  4.1181444665e+01  5.7985972459e+01  0.0000000000e+00 0. 9.
       13     1     7     0     0     0 -1.3001896247e+01  3.1980119674e+01  8.0803964851e+01  8.7869615113e+01  1.0566000000e-01  2.196181e+05 9.
      -14     1     7     0     0     0  3.2345060523e+01 -1.0203601123e+01  5.1735631921e+00  3.4308631162e+01  0.0000000000e+00 0. 9.
#pdf   21   21  1.615129e-01  4.726432e-03  1.727288e+02  4.027182e-01  1.391642e+01
</event>
<event>
    12  9999  1.000000e+00  3.362932e+02  7.934894e-03  9.946754e-02
       21    -1     0     0   101   102  0.0000000000e+00  0.0000000000e+00  3.3186782401e+02  3.3186782401e+02  0.0000000000e+00 0. 9.
       21    -1     0     0   102   103  0.0000000000e+00  0.0000000000e+00 -3.5567879758e+02  3.5567879758e+02  0.0000000000e+00 0. 9.
        6     2     1     2   101     0 -2.8505438137e+02 -5.0318298614e+01  5.8462061671e+01  3.4124742174e+02  1.7100894326e+02  9.231172e-14 9.
       -6     2     1     2     0   103  2.8505438137e+02  5.0318298614e+01 -8.2273035247e+01  3.4629919985e+02  1.7136613428e+02  9.554782e-14 9.
       24     2     3     0     0     0 -2.8434940113e+02 -1.9857038683e+01  2.7272996034e+01  2.9738190944e+02  8.0270167805e+01  2.276611e-14 9.
        5     1     3     0   101     0 -7.0498023472e-01 -3.0461259931e+01  3.1189065637e+01  4.3865512297e+01  4.8000000000e+00 0. 9.
      -24     2     4     0     0     0  7.7251143157e+01  6.1022012467e+01 -2.4739124398e+01  1.3035951800e+02  8.1793364842e+01  1.213930e-13 9.
       -5     1     4     0     0   103  2.0780323821e+02 -1.0703713852e+01 -5.7533910849e+01  2.1593968185e+02  4.8000000000e+00 0. 9.
      -15     1     5     0     0     0 -8.2878955136e+01 -4.2505755479e+01  3.1630293567e+00  9.3213852497e+01  1.7768200000e+00  2.483442e-02 9.
       16     1     5     0     0     0 -2.0147044600e+02  2.2648716796e+01  2.4109966677e+01  2.0416805694e+02  0.0000000000e+00 0. 9.
        1     1     7     0   104     0  9.3327654632e+01  5.8032149118e+01 -1.3986153762e+01  1.1078584227e+02  3.3000000000e-01 0. 9.
       -2     1     7     0     0   104 -1.6076511475e+01  2.9898633484e+00 -1.0752970636e+01  1.9573675729e+01  3.3000000000e-01 0. 9.
#pdf   21   21  5.105659e-02  5.471982e-02  3.362023e+02  1.795863e+00  1.660458e+00
</event>
<event>
    12  9999  1.000000e+00  2.104317e+02  7.892322e-03  1.050868e-01
       21    -1     0     0   101   102  0.0000000000e+00  0.0000000000e+00  3.8711488372e+01  3.8711488372e+01  0.0000000000e+00 0. 9.
       21    -1     0     0   103   101  0.0000000000e+00  0.0000000000e+00 -1.2462012295e+03  1.2462012295e+03  0.0000000000e+00 0. 9.
        6     2     1     2   103     0  5.3950091893e+01  1.0994619264e+02 -7.8903824950e+02  8.1673561467e+02  1.7168846034e+02  7.999045e-14 9.
       -6     2     1     2     0   102 -5.3950091893e+01 -1.0994619264e+02 -4.1845149160e+02  4.6817710317e+02  1.7055606532e+02  4.890032e-14 9.
       24     2     3     0     0     0  5.0318456515e+01  1.4638954841e+02 -6.2997542216e+02  6.5344039124e+02  7.8444027358e+01  1.135374e-13 9.
        5     1     3     0   103     0  3.6316353785e+00 -3.6443355771e+01 -1.5906282733e+02  1.6329522343e+02  4.8000000000e+00 0. 9.
      -24     2     4     0     0     0 -7.7402371849e+01 -1.9463848025e+01 -2.6987062824e+02  2.9257420718e+02  7.9997138529e+01  1.481440e-14 9.
       -5     1     4     0     0   102  2.3452279956e+01 -9.0482344617e+01 -1.4858086337e+02  1.7560289599e+02  4.8000000000e+00 0. 9.
      -15     1     5     0     0     0  3.8247932386e+01  2.9997150701e+01 -1.0704959200e+02  1.1758191025e+02  1.7768200000e+00  1.502075e-02 9.
       16     1     5     0     0     0  1.2070524129e+01  1.1639239771e+02 -5.2292583017e+02  5.3585848099e+02  0.0000000000e+00 0. 9.
       11     1     7     0     0     0 -7.0961053370e+01 -2.9839502498e+01 -1.2237290272e+02  1.4457176185e+02  5.1100000000e-04 0. 9.
      -12     1     7     0     0     0 -6.4413184793e+00  1.0375654473e+01 -1.4749772552e+02  1.4800244533e+02  0.0000000000e+00 0. 9.
#pdf   21   21  5.955614e-03  1.917233e-01  2.099718e+02  1.192518e+01  2.871259e-01
</event>
<event>
    12  9999  1.000000e+00  2.063142e+02  7.890538e-03  1.053378e-01
       21    -1     0     0   101   102  0.0000000000e+00  0.0000000000e+00  5.0177544670e+01  5.0177544670e+01  0.0000000000e+00 0. 9.
       21    -1     0     0   102   103  0.0000000000e+00  0.0000000000e+00 -8.5675427369e+02  8.5675427369e+02  0.0000000000e+00 0. 9.
        6     2     1     2   101     0  4.7138050507e+01 -1.0548624265e+02 -3.5725593240e+02  4.1229279249e+02  1.7030620163e+02  5.233476e-13 9.
       -6     2     1     2     0   103 -4.7138050507e+01  1.0548624265e+02 -4.4932079662e+02  4.9463902587e+02  1.7154953932e+02  6.801916e-14 9.
       24     2     3     0     0     0  3.7715021069e+01 -2.2701114765e+01 -2.9262449152e+02  3.0673506405e+02  8.0743687406e+01  4.031313e-14 9.
        5     1     3     0   101     0  9.4230294375e+00 -8.2785127888e+01 -6.4631440876e+01  1.0555772844e+02  4.8000000000e+00 0. 9.
      -24     2     4     0     0     0 -3.8674415141e+01 -4.9121626612e+00 -1.4264534835e+02  1.6855266984e+02  8.0885520174e+01  9.575035e-14 9.
       -5     1     4     0     0   103 -8.4636353659e+00  1.1039840531e+02 -3.0667544827e+02  3.2608635603e+02  4.8000000000e+00 0. 9.
       -1     1     5     0     0   104  2.6650066625e+01 -4.2190657313e+01 -9.0293639899e+01  1.0316650581e+02  3.3000000000e-01 0. 9.
        2     1     5     0   104     0  1.1064954444e+01  1.9489542548e+01 -2.0233085162e+02  2.0356855824e+02  3.3000000000e-01 0. 9.
       15     1     7     0     0     0 -4.6711442151e+01  2.3648034975e+01 -5.4707984420e+01  7.5745026468e+01  1.7768200000e+00  1.078015e-01 9.
      -16     1     7     0     0     0  8.0370270098e+00 -2.8560197636e+01 -8.7937363934e+01  9.2807643370e+01  0.0000000000e+00 0. 9.
#pdf   21   21  7.719622e-03  1.318083e-01  2.057998e+02  9.870557e+00  5.457641e-01
</event>
<event>
    12  9999  1.000000e+00  2.298436e+02  7.900300e-03  1.039805e-01
       21    -1     0     0   101   102  0.0000000000e+00  0.0000000000e+00  5.0917322128e+02  5.0917322128e+02  0.0000000000e+00 0. 9.
       21    -1     0     0   102   103  0.0000000000e+00  0.0000000000e+00 -1.0380004548e+02  1.0380004548e+02  0.0000000000e+00 0. 9.
        6     2     1     2   101     0  1.5145816389e+02  1.4674864185e+01  2.0842089153e+02  3.0966619117e+02  1.7116937483e+02  5.004337e-14 9.
       -6     2     1     2     0   103 -1.5145816389e+02 -1.4674864185e+01  1.9695228427e+02  3.0330707558e+02  1.7334951045e+02  1.687756e-13 9.
       24     2     3     0     0     0  5.6793228224e+01 -1.8495659866e+01  1.7907275549e+02  2.0504264315e+02  8.0049194545e+01  1.131753e-13 9.
        5     1     3     0   101     0  9.4664935665e+01  3.3170524052e+01  2.9348136047e+01  1.0462354802e+02  4.8000000000e+00 0. 9.
      -24     2     4     0     0     0 -3.4455443299e+01  1.4036782057e+00 -9.4842199355e+00  6.5426377714e+01  5.4786061982e+01  5.034531e-13 9.
       -5     1     4     0     0   103 -1.1700272059e+02 -1.6078542391e+01  2.0643650420e+02  2.3788069787e+02  4.8000000000e+00 0. 9.
      -13     1     5     0     0     0  5.4116471120e+01  2.2632560494e+01  1.0598334783e+02  1.2113342406e+02  1.0566000000e-01  7.424241e+05 9.
       14     1     5     0     0     0  2.6767571042e+00 -4.1128220360e+01  7.3089407651e+01  8.3909219096e+01  0.0000000000e+00 0. 9.
        3     1     7     0   104     0 -2.7940109092e+00  1.9620345808e+01  1.1876557665e+01  2.3109891574e+01  5.0000000000e-01 0. 9.
       -2     1     7     0     0   104 -3.1661432389e+01 -1.8216667603e+01 -2.1360777600e+01  4.2316486139e+01  3.3000000000e-01 0. 9.
#pdf   21   21  7.833434e-02  1.596924e-02  2.290281e+02  1.112375e+00  5.577675e+00
</event>
<event>
    12  9999  1.000000e+00  1.799283e+02  7.878203e-03  1.071101e-01
       21    -1     0     0   101   102  0.0000000000e+00  0.0000000000e+00  2.1723492345e+02  2.1723492345e+02  0.0000000000e+00 0. 9.
       21    -1     0     0   102   103  0.0000000000e+00  0.0000000000e+00 -1.6449004633e+02  1.6449004633e+02  0.0000000000e+00 0. 9.
        6     2     1     2   101     0 -5.1137822635e+01 -2.4378581518e+00  8.4988502355e+01  1.9971224571e+02  1.7332315339e+02  4.236033e-14 9.
       -6     2     1     2     0   103  5.1137822635e+01  2.4378581518e+00 -3.2243625238e+01  1.8201272406e+02  1.7166234385e+02  1.181622e-13 9.
       24     2     3     0     0     0 -7.2462887166e+01 -5.5135096600e+01  4.4823225459e+01  1.2994085627e+02  8.1146507585e+01  2.414034e-13 9.
        5     1     3     0   101     0  2.1325064530e+01  5.2697238448e+01  4.0165276897e+01  6.9771389448e+01  4.8000000000e+00 0. 9.
      -24     2     4     0     0     0  1.1528761025e+01  2.1975519215e+01  4.3359204376e+01  9.4323352945e+01  8.0006490556e+01  1.323090e-14 9.
       -5     1     4     0     0   103  3.9609061610e+01 -1.9537661063e+01 -7.5602829614e+01  8.7689371118e+01  4.8000000000e+00 0. 9.
       -3     1     5     0     0   104  1.0305654129e+01 -3.2740302325e+01  2.8036789467e+00  3.4441900630e+01  5.0000000000e-01 0. 9.
        4     1     5     0   104     0 -8.2768541295e+01 -2.2394794275e+01  4.2019546512e+01  9.5498955637e+01  1.5000000000e+00 0. 9.
        3     1     7     0   105     0  2.1777112705e+01 -2.6115253121e+01  2.3158064050e+01  4.1143590192e+01  5.0000000000e-01 0. 9.
       -4     1     7     0     0   105 -1.0248351680e+01  4.8090772336e+01  2.0201140326e+01  5.3179762753e+01  1.5000000000e+00 0. 9.
#pdf   21   21  3.342076e-02  2.530616e-02  1.791340e+02  2.890213e+00  3.752399e+00
</event>
<event>
    12  9999  1.000000e+00  1.827383e+02  7.879598e-03  1.069063e-01
       21    -1     0     0   101   102  0.0000000000e+00  0.0000000000e+00  9.3262245115e+02  9.3262245115e+02  0.0000000000e+00 0. 9.
       21    -1     0     0   103   101  0.0000000000e+00  0.0000000000e+00 -3.7195288956e+01  3.7195288956e+01  0.0000000000e+00 0. 9.
        6     2     1     2   103     0 -4.6322190164e+01  1.5491353250e+01  3.4175149374e+02  3.8492270189e+02  1.7025180066e+02  4.650413e-13 9.
       -6     2     1     2     0   102  4.6322190164e+01 -1.5491353250e+01  5.5367566845e+02  5.8489503822e+02  1.8209813993e+02  3.105646e-13 9.
       24     2     3     0     0     0 -9.5306399624e+01  1.9054845945e+01  2.2513941123e+02  2.5829897172e+02  8.1143128701e+01  7.312112e-14 9.
        5     1     3     0   103     0  4.8984209460e+01 -3.5634926953e+00  1.1661208251e+02  1.2662373018e+02  4.8000000000e+00 0. 9.
      -24     2     4     0     0     0  5.3064773250e+01  5.8170852441e+01  2.8956735384e+02  3.1058166847e+02  8.0074978274e+01  4.589658e-14 9.
       -5     1     4     0     0   102 -6.7425830860e+00 -7.3662205691e+01  2.6410831462e+02  2.7431336975e+02  4.8000000000e+00 0. 9.
       -1     1     5     0     0   104 -3.6195713123e+01 -3.1963906767e+01  9.3823887717e+01  1.0552180718e+02  3.3000000000e-01 0. 9.
        2     1     5     0   104     0 -5.9110686501e+01  5.1018752713e+01  1.3131552352e+02  1.5277716454e+02  3.3000000000e-01 0. 9.
        1     1     7     0   105     0 -7.1068875615e+00 -1.5279288672e+01  3.4061295594e+01  3.8003227109e+01  3.3000000000e-01 0. 9.
       -2     1     7     0     0   105  6.0171660811e+01  7.3450141113e+01  2.5550605824e+02  2.7257844136e+02  3.3000000000e-01 0. 9.
#pdf   21   21  1.434804e-01  5.722352e-03  1.771197e+02  4.872769e-01  1.219766e+01
</event>
<event>
    12  9999  1.000000e+00  1.888781e+02  7.882574e-03  1.064745e-01
       21    -1     0     0   101   102  0.0000000000e+00  0.0000000000e+00  2.0233486205e+02  2.0233486205e+02  0.0000000000e+00 0. 9.
       21    -1     0     0   102   103  0.0000000000e+00  0.0000000000e+00 -1.7757876968e+02  1.7757876968e+02  0.0000000000e+00 0. 9.
        6     2     1     2   101     0  5.3698853565e+01  5.7433924771e+01  2.8341960265e+01  1.9038054147e+02  1.7105338719e+02  3.940317e-14 9.
       -6     2     1     2     0   103 -5.3698853565e+01 -5.7433924771e+01 -3.5858678923e+00  1.8953309026e+02  1.7241725919e+02  1.452356e-14 9.
       24     2     3     0     0     0  5.6645502334e+01 -1.2984782041e+01  5.8340969087e+01  1.1363122526e+02  7.8301144192e+01  2.798531e-14 9.
        5     1     3     0   101     0 -2.9466487694e+00  7.0418706812e+01 -2.9999008821e+01  7.6749316208e+01  4.8000000000e+00 0. 9.
      -24     2     4     0     0     0 -5.3162132473e+01 -6.6556037056e+01 -5.5853732232e+01  1.3625579074e+02  9.0499075725e+01  4.746555e-14 9.
       -5     1     4     0     0   103 -5.3672109171e-01  9.1221122844e+00  5.2267864340e+01  5.3277299526e+01  4.8000000000e+00 0. 9.
       -1     1     5     0     0   104 -3.5853064543e+00  2.5387349600e+01  1.0783091789e+01  2.7816468334e+01  3.3000000000e-01 0. 9.
        4     1     5     0   104     0  6.0230808788e+01 -3.8372131641e+01  4.7557877298e+01  8.5814756930e+01  1.5000000000e+00 0. 9.
        3     1     7     0   105     0 -1.1334535268e+01  2.0746390968e+01  1.5564271104e+00  2.3697191675e+01  5.0000000000e-01 0. 9.
       -4     1     7     0     0   105 -4.1827597205e+01 -8.7302428023e+01 -5.7410159343e+01  1.1255859906e+02  1.5000000000e+00 0. 9.
#pdf   21   21  3.112844e-02  2.731981e-02  1.882591e+02  3.089102e+00  3.493069e+00
</event>
<event>
    12  9999  1.000000e+00  2.228697e+02  7.897512e-03  1.043641e-01
       21    -1     0     0   101   102  0.0000000000e+00  0.0000000000e+00  2.2917431489e+01  2.2917431489e+01  0.0000000000e+00 0. 9.
       21    -1     0     0   102   103  0.0000000000e+00  0.0000000000e+00 -2.3708012641e+03  2.3708012641e+03  0.0000000000e+00 0. 9.
        6     2     1     2   101     0 -1.4924406732e+02 -7.8014228078e+00 -7.9511375748e+02  8.2413212284e+02  1.5701342211e+02  2.456459e-13 9.
       -6     2     1     2     0   103  1.4924406732e+02  7.8014228078e+00 -1.5527700752e+03  1.5695865728e+03  1.7370218572e+02  1.458425e-13 9.
       24     2     3     0     0     0 -7.0893255430e+01 -5.6648544961e+01 -5.2315910852e+02  5.3689134899e+02  7.9510731871e+01  2.784540e-15 9.
        5     1     3     0   101     0 -7.8350811892e+01  4.8847122153e+01 -2.7195464896e+02  2.8724077385e+02  4.8000000000e+00 0. 9.
      -24     2     4     0     0     0  7.5275748796e+01 -5.2534903725e+01 -6.1039443540e+02  6.2237663257e+02  7.9655204005e+01  4.951902e-15 9.
       -5     1     4     0     0   103  7.3968318527e+01  6.0336326532e+01 -9.4237563975e+02  9.4720994021e+02  4.8000000000e+00 0. 9.
      -11     1     5     0     0     0 -2.8806601464e+00 -5.2378019793e+01 -2.3509542814e+02  2.4087676412e+02  5.1100000000e-04 0. 9.
       12     1     5     0     0     0 -6.8012595284e+01 -4.2705251675e+00 -2.8806368038e+02  2.9601458487e+02  0.0000000000e+00 0. 9.
       11     1     7     0     0     0  4.8462054648e+01  8.9247258207e+00 -3.5160234754e+02  3.5503863490e+02  5.1100000000e-04 0. 9.
      -12     1     7     0     0     0  2.6813694148e+01 -6.1459629545e+01 -2.5879208786e+02  2.6733799767e+02  0.0000000000e+00 0. 9.
#pdf   21   21  3.525759e-03  3.647387e-01  2.167669e+02  1.716112e+01  5.033297e-02
</event>
<event>
    12  9999  1.000000e+00  2.201493e+02  7.896401e-03  1.045178e-01
       21    -1     0     0   101   102  0.0000000000e+00  0.0000000000e+00  3.6492407572e+02  3.6492407572e+02  0.0000000000e+00 0. 9.
       21    -1     0     0   103   101  0.0000000000e+00  0.0000000000e+00 -1.3472200514e+02  1.3472200514e+02  0.0000000000e+00 0. 9.
        6     2     1     2   103     0 -1.2412851729e+02  5.9851809950e+01  8.5950871479e+01  2.3738588053e+02  1.7313109486e+02  5.499785e-14 9.
       -6     2     1     2     0   102  1.2412851729e+02 -5.9851809950e+01  1.4425119910e+02  2.6226020033e+02  1.7024064226e+02  5.939161e-14 9.
       24     2     3     0     0     0 -4.1375593533e+01  8.2105109920e+01  9.7767337177e+01  1.5074914115e+02  6.8656117879e+01  1.343659e-13 9.
        5     1     3     0   103     0 -8.2752923755e+01 -2.2253299970e+01 -1.1816465698e+01  8.6636739384e+01  4.8000000000e+00 0. 9.
      -24     2     4     0     0     0  1.1480821844e+02  1.4788771853e+01  7.3995559540e+01  1.5922147308e+02  8.0476703857e+01  1.080192e-13 9.
       -5     1     4     0     0   102  9.3202988458e+00 -7.4640581803e+01  7.0255639564e+01  1.0303872725e+02  4.8000000000e+00 0. 9.
      -13     1     5     0     0     0 -2.7147980141e+01  6.0385265585e+01  2.0611400431e+01  6.9341431462e+01  1.0566000000e-01  5.117625e+05 9.
       14     1     5     0     0     0 -1.4227613392e+01  2.1719844335e+01  7.7155936745e+01  8.1407709683e+01  0.0000000000e+00 0. 9.
        1     1     7     0   104     0  7.4280176894e+01 -1.8998930202e+01  7.3852117698e+01  1.0645538134e+02  3.3000000000e-01 0. 9.
       -2     1     7     0     0   104  4.0528041548e+01  3.3787702054e+01  1.4344184206e-01  5.2766091739e+01  3.3000000000e-01 0. 9.
#pdf   21   21  5.614217e-02  2.072646e-02  2.190251e+02  1.661538e+00  4.463085e+00
</event>
<event>
    12  9999  1.000000e+00  4.517867e+02  7.961939e-03  9.623091e-02
       21    -1     0     0   101   102  0.0000000000e+00  0.0000000000e+00  8.4701555953e+02  8.4701555953e+02  0.0000000000e+00 0. 9.
       21    -1     0     0   103   101  0.0000000000e+00  0.0000000000e+00 -5.1904795937e+02  5.1904795937e+02  0.0000000000e+00 0. 9.
        6     2     1     2   103     0 -5.4126455857e+00  4.1848626931e+02 -3.3598744617e+02  5.6286161350e+02  1.6960417929e+02  8.276393e-13 9.
       -6     2     1     2     0   102  5.4126455857e+00 -4.1848626931e+02  6.6395504632e+02  8.0320190540e+02  1.7069546849e+02  7.657207e-14 9.
       24     2     3     0     0     0  7.7471674451e+00  8.6786929876e+01 -1.1581008365e+02  1.6449150490e+02  7.7804176670e+01  3.562965e-14 9.
        5     1     3     0   103     0 -1.3159813031e+01  3.3169933944e+02 -2.2017736252e+02  3.9837010860e+02  4.8000000000e+00 0. 9.
      -24     2     4     0     0     0 -4.2023502297e+01 -2.3379194664e+02  4.5825095291e+02  5.2266778091e+02  8.2237608812e+01  5.557741e-14 9.
       -5     1     4     0     0   102  4.7436147883e+01 -1.8469432268e+02  2.0570409341e+02  2.8053412449e+02  4.8000000000e+00 0. 9.
      -11     1     5     0     0     0 -2.7858030376e+01  1.9427770047e+01 -1.2643356260e+01  3.6240344414e+01  5.1100000000e-04 0. 9.
       12     1     5     0     0     0  3.5605197821e+01  6.7359159829e+01 -1.0316672739e+02  1.2825116048e+02  0.0000000000e+00 0. 9.
        1     1     7     0   104     0 -1.2847111210e+01 -4.9802453297e+01  1.8456378038e+02  1.9159653063e+02  3.3000000000e-01 0. 9.
       -2     1     7     0     0   104 -2.9176391087e+01 -1.8398949334e+02  2.7368717253e+02  3.3107125028e+02  3.3000000000e-01 0. 9.
#pdf   21   21  1.303101e-01  7.985353e-02  4.515813e+02  5.042368e-01  1.022233e+00
</event>
</LesHouchesEvents>
